
.Version 8.4.2 of ABINIT 
.(MPI version, prepared for a x86_64_linux_gnu4.8 computer) 

.Copyright (C) 1998-2017 ABINIT group . 
 ABINIT comes with ABSOLUTELY NO WARRANTY.
 It is free software, and you are welcome to redistribute it
 under certain conditions (GNU General Public License,
 see ~abinit/COPYING or http://www.gnu.org/copyleft/gpl.txt).

 ABINIT is a project of the Universite Catholique de Louvain,
 Corning Inc. and other collaborators, see ~abinit/doc/developers/contributors.txt .
 Please read ~abinit/doc/users/acknowledgments.html for suggested
 acknowledgments of the ABINIT effort.
 For more information, see http://www.abinit.org .

.Starting date : Tue 15 Aug 2017.
- ( at 22h14 )
  
- input  file    -> abinit.in
- output file    -> abinit.out
- root for input  files -> abinit_i
- root for output files -> abinit_o


 DATASET    1 : space group Fm -3 m (#225); Bravais cF (face-center cubic)
================================================================================
 Values of the parameters that define the memory need for DATASET  1.
     intxc =       0    ionmov =       0      iscf =      17    lmnmax =      18
     lnmax =       6     mgfft =      24  mpssoang =       3    mqgrid =    3001
     natom =       2  nloc_mem =       2    nspden =       2   nspinor =       1
    nsppol =       2      nsym =      48    n1xccc =       1    ntypat =       2
    occopt =       7   xclevel =       2
-    mband =          40        mffmem =           1         mkmem =           5
       mpw =         100          nfft =        3456          nkpt =          10
Pmy_natom=         1
 PAW method is used; the additional fine FFT grid is defined by:
   mgfftf=        36    nfftf =     11664
================================================================================
P This job should need less than                      13.066 Mbytes of memory.
  Rough estimation (10% accuracy) of disk space for files :
_ WF disk file :      4.885 Mbytes ; DEN or POT disk file :      0.180 Mbytes.
================================================================================


 DATASET    2 : space group Fm -3 m (#225); Bravais cF (face-center cubic)
================================================================================
 Values of the parameters that define the memory need for DATASET  2.
     intxc =       0    ionmov =       0      iscf =      -2    lmnmax =      18
     lnmax =       6     mgfft =      24  mpssoang =       3    mqgrid =    3001
     natom =       2  nloc_mem =       2    nspden =       2   nspinor =       1
    nsppol =       2      nsym =      48    n1xccc =       1    ntypat =       2
    occopt =       7   xclevel =       2
-    mband =          40        mffmem =           1         mkmem =          12
       mpw =         388          nfft =       13824          nkpt =          89
Pmy_natom=         1
 PAW method is used; the additional fine FFT grid is defined by:
   mgfftf=        36    nfftf =     46656
================================================================================
P This job should need less than                      25.501 Mbytes of memory.
  Rough estimation (10% accuracy) of disk space for files :
_ WF disk file :     42.155 Mbytes ; DEN or POT disk file :      0.714 Mbytes.
================================================================================


 DATASET    3 : space group Fm -3 m (#225); Bravais cF (face-center cubic)
================================================================================
 Values of the parameters that define the memory need for DATASET  3.
     intxc =       0    ionmov =       0      iscf =      -2    lmnmax =      18
     lnmax =       6     mgfft =      24  mpssoang =       3    mqgrid =    3001
     natom =       2  nloc_mem =       2    nspden =       2   nspinor =       1
    nsppol =       2      nsym =      48    n1xccc =       1    ntypat =       2
    occopt =       7   xclevel =       2
-    mband =          40        mffmem =           1         mkmem =          12
       mpw =         388          nfft =       13824          nkpt =          89
Pmy_natom=         1
 PAW method is used; the additional fine FFT grid is defined by:
   mgfftf=        36    nfftf =     46656
================================================================================
P This job should need less than                      25.501 Mbytes of memory.
  Rough estimation (10% accuracy) of disk space for files :
_ WF disk file :     42.155 Mbytes ; DEN or POT disk file :      0.714 Mbytes.
================================================================================


 DATASET    4 : space group Fm -3 m (#225); Bravais cF (face-center cubic)
================================================================================
 Values of the parameters that define the memory need for DATASET  4.
     intxc =       0    ionmov =       0      iscf =      -3    lmnmax =      18
     lnmax =       6     mgfft =      24  mpssoang =       3    mqgrid =    3001
     natom =       2  nloc_mem =       2    nspden =       2   nspinor =       1
    nsppol =       2      nsym =      48    n1xccc =       1    ntypat =       2
    occopt =       7   xclevel =       2
-    mband =          40        mffmem =           1         mkmem =           5
       mpw =         100          nfft =        3456          nkpt =          10
Pmy_natom=         1
 PAW method is used; the additional fine FFT grid is defined by:
   mgfftf=        36    nfftf =     11664
================================================================================
P This job should need less than                       9.463 Mbytes of memory.
  Rough estimation (10% accuracy) of disk space for files :
_ WF disk file :      4.885 Mbytes ; DEN or POT disk file :      0.180 Mbytes.
================================================================================

--------------------------------------------------------------------------------
------------- Echo of variables that govern the present computation ------------
--------------------------------------------------------------------------------
-
- outvars: echo of selected default values                                      
-   iomode0 =  0 , fftalg0 =112 , wfoptalg0 = 10
-
- outvars: echo of global parameters not present in the input file              
-  max_nthreads =    0
-
 -outvars: echo values of preprocessed input variables --------
-          iomode1          1
-          iomode2          0
-          iomode3          0
-          iomode4          1
            acell      1.8897261329E+00  1.8897261329E+00  1.8897261329E+00 Bohr
              amu      5.58470000E+01  1.59994000E+01
        autoparal           1
             ecut      1.50000000E+01 Hartree
-          fftalg1        401
-          fftalg2        112
-          fftalg3        112
-          fftalg4        401
           getden1          0
           getden2          1
           getden3          1
           getden4          1
           iatsph3       1    2
           iatsph4       1    2
     densfor_pred1          6
     densfor_pred2          2
     densfor_pred3          2
     densfor_pred4          6
             iscf1         17
             iscf2         -2
             iscf3         -2
             iscf4         -3
           istwfk2       2    0    0    0    0    0    0    0    0    0
                         0    0    0    0    0    7    0    0    0    0
                         0    0    0    0    0    0    0    0    0    0
                         0    0    0    0    0    0    0    0    0    0
                         0    0    2    0    0    0    0    0    0    0
           istwfk3       2    0    0    0    0    0    0    0    0    0
                         0    0    0    0    0    7    0    0    0    0
                         0    0    0    0    0    0    0    0    0    0
                         0    0    0    0    0    0    0    0    0    0
                         0    0    2    0    0    0    0    0    0    0
              ixc          11
           jdtset        1    2    3    4
              kpt1    -1.25000000E-01  0.00000000E+00  0.00000000E+00
                      -1.25000000E-01  0.00000000E+00  2.50000000E-01
                      -1.25000000E-01  1.25000000E-01  1.25000000E-01
                      -3.75000000E-01  0.00000000E+00  0.00000000E+00
                      -1.25000000E-01  0.00000000E+00  5.00000000E-01
                      -2.50000000E-01  0.00000000E+00  3.75000000E-01
                      -1.25000000E-01  1.25000000E-01  3.75000000E-01
                      -1.25000000E-01  2.50000000E-01  2.50000000E-01
                      -3.75000000E-01  0.00000000E+00  5.00000000E-01
                      -2.50000000E-01  1.25000000E-01  5.00000000E-01
              kpt2     0.00000000E+00  0.00000000E+00  0.00000000E+00
                       3.33333333E-02  3.33333333E-02  0.00000000E+00
                       6.66666667E-02  6.66666667E-02  0.00000000E+00
                       1.00000000E-01  1.00000000E-01  0.00000000E+00
                       1.33333333E-01  1.33333333E-01  0.00000000E+00
                       1.66666667E-01  1.66666667E-01  0.00000000E+00
                       2.00000000E-01  2.00000000E-01  0.00000000E+00
                       2.33333333E-01  2.33333333E-01  0.00000000E+00
                       2.66666667E-01  2.66666667E-01  0.00000000E+00
                       3.00000000E-01  3.00000000E-01  0.00000000E+00
                       3.33333333E-01  3.33333333E-01  0.00000000E+00
                       3.66666667E-01  3.66666667E-01  0.00000000E+00
                       4.00000000E-01  4.00000000E-01  0.00000000E+00
                       4.33333333E-01  4.33333333E-01  0.00000000E+00
                       4.66666667E-01  4.66666667E-01  0.00000000E+00
                       5.00000000E-01  5.00000000E-01  0.00000000E+00
                       5.00000000E-01  5.35714286E-01  3.57142857E-02
                       5.00000000E-01  5.71428571E-01  7.14285714E-02
                       5.00000000E-01  6.07142857E-01  1.07142857E-01
                       5.00000000E-01  6.42857143E-01  1.42857143E-01
                       5.00000000E-01  6.78571429E-01  1.78571429E-01
                       5.00000000E-01  7.14285714E-01  2.14285714E-01
                       5.00000000E-01  7.50000000E-01  2.50000000E-01
                       4.75000000E-01  7.50000000E-01  2.75000000E-01
                       4.50000000E-01  7.50000000E-01  3.00000000E-01
                       4.25000000E-01  7.50000000E-01  3.25000000E-01
                       4.00000000E-01  7.50000000E-01  3.50000000E-01
                       3.75000000E-01  7.50000000E-01  3.75000000E-01
                       3.50000000E-01  7.00000000E-01  3.50000000E-01
                       3.25000000E-01  6.50000000E-01  3.25000000E-01
                       3.00000000E-01  6.00000000E-01  3.00000000E-01
                       2.75000000E-01  5.50000000E-01  2.75000000E-01
                       2.50000000E-01  5.00000000E-01  2.50000000E-01
                       2.25000000E-01  4.50000000E-01  2.25000000E-01
                       2.00000000E-01  4.00000000E-01  2.00000000E-01
                       1.75000000E-01  3.50000000E-01  1.75000000E-01
                       1.50000000E-01  3.00000000E-01  1.50000000E-01
                       1.25000000E-01  2.50000000E-01  1.25000000E-01
                       1.00000000E-01  2.00000000E-01  1.00000000E-01
                       7.50000000E-02  1.50000000E-01  7.50000000E-02
                       5.00000000E-02  1.00000000E-01  5.00000000E-02
                       2.50000000E-02  5.00000000E-02  2.50000000E-02
                       0.00000000E+00  0.00000000E+00  0.00000000E+00
                       3.84615385E-02  3.84615385E-02  3.84615385E-02
                       7.69230769E-02  7.69230769E-02  7.69230769E-02
                       1.15384615E-01  1.15384615E-01  1.15384615E-01
                       1.53846154E-01  1.53846154E-01  1.53846154E-01
                       1.92307692E-01  1.92307692E-01  1.92307692E-01
                       2.30769231E-01  2.30769231E-01  2.30769231E-01
                       2.69230769E-01  2.69230769E-01  2.69230769E-01
              kpt3     0.00000000E+00  0.00000000E+00  0.00000000E+00
                       3.33333333E-02  3.33333333E-02  0.00000000E+00
                       6.66666667E-02  6.66666667E-02  0.00000000E+00
                       1.00000000E-01  1.00000000E-01  0.00000000E+00
                       1.33333333E-01  1.33333333E-01  0.00000000E+00
                       1.66666667E-01  1.66666667E-01  0.00000000E+00
                       2.00000000E-01  2.00000000E-01  0.00000000E+00
                       2.33333333E-01  2.33333333E-01  0.00000000E+00
                       2.66666667E-01  2.66666667E-01  0.00000000E+00
                       3.00000000E-01  3.00000000E-01  0.00000000E+00
                       3.33333333E-01  3.33333333E-01  0.00000000E+00
                       3.66666667E-01  3.66666667E-01  0.00000000E+00
                       4.00000000E-01  4.00000000E-01  0.00000000E+00
                       4.33333333E-01  4.33333333E-01  0.00000000E+00
                       4.66666667E-01  4.66666667E-01  0.00000000E+00
                       5.00000000E-01  5.00000000E-01  0.00000000E+00
                       5.00000000E-01  5.35714286E-01  3.57142857E-02
                       5.00000000E-01  5.71428571E-01  7.14285714E-02
                       5.00000000E-01  6.07142857E-01  1.07142857E-01
                       5.00000000E-01  6.42857143E-01  1.42857143E-01
                       5.00000000E-01  6.78571429E-01  1.78571429E-01
                       5.00000000E-01  7.14285714E-01  2.14285714E-01
                       5.00000000E-01  7.50000000E-01  2.50000000E-01
                       4.75000000E-01  7.50000000E-01  2.75000000E-01
                       4.50000000E-01  7.50000000E-01  3.00000000E-01
                       4.25000000E-01  7.50000000E-01  3.25000000E-01
                       4.00000000E-01  7.50000000E-01  3.50000000E-01
                       3.75000000E-01  7.50000000E-01  3.75000000E-01
                       3.50000000E-01  7.00000000E-01  3.50000000E-01
                       3.25000000E-01  6.50000000E-01  3.25000000E-01
                       3.00000000E-01  6.00000000E-01  3.00000000E-01
                       2.75000000E-01  5.50000000E-01  2.75000000E-01
                       2.50000000E-01  5.00000000E-01  2.50000000E-01
                       2.25000000E-01  4.50000000E-01  2.25000000E-01
                       2.00000000E-01  4.00000000E-01  2.00000000E-01
                       1.75000000E-01  3.50000000E-01  1.75000000E-01
                       1.50000000E-01  3.00000000E-01  1.50000000E-01
                       1.25000000E-01  2.50000000E-01  1.25000000E-01
                       1.00000000E-01  2.00000000E-01  1.00000000E-01
                       7.50000000E-02  1.50000000E-01  7.50000000E-02
                       5.00000000E-02  1.00000000E-01  5.00000000E-02
                       2.50000000E-02  5.00000000E-02  2.50000000E-02
                       0.00000000E+00  0.00000000E+00  0.00000000E+00
                       3.84615385E-02  3.84615385E-02  3.84615385E-02
                       7.69230769E-02  7.69230769E-02  7.69230769E-02
                       1.15384615E-01  1.15384615E-01  1.15384615E-01
                       1.53846154E-01  1.53846154E-01  1.53846154E-01
                       1.92307692E-01  1.92307692E-01  1.92307692E-01
                       2.30769231E-01  2.30769231E-01  2.30769231E-01
                       2.69230769E-01  2.69230769E-01  2.69230769E-01
              kpt4    -1.25000000E-01  0.00000000E+00  0.00000000E+00
                      -1.25000000E-01  0.00000000E+00  2.50000000E-01
                      -1.25000000E-01  1.25000000E-01  1.25000000E-01
                      -3.75000000E-01  0.00000000E+00  0.00000000E+00
                      -1.25000000E-01  0.00000000E+00  5.00000000E-01
                      -2.50000000E-01  0.00000000E+00  3.75000000E-01
                      -1.25000000E-01  1.25000000E-01  3.75000000E-01
                      -1.25000000E-01  2.50000000E-01  2.50000000E-01
                      -3.75000000E-01  0.00000000E+00  5.00000000E-01
                      -2.50000000E-01  1.25000000E-01  5.00000000E-01
                       outvar_i_n : Printing only first  50 k-points.
           kptopt1          4
           kptopt2         -9
           kptopt3         -9
           kptopt4          4
         kptrlatt        4    4   -4     -4    4   -4     -4    4    4
          kptrlen1     3.26310711E+01
          kptrlen2     3.00000000E+01
          kptrlen3     3.00000000E+01
          kptrlen4     3.26310711E+01
P           mkmem1          5
P           mkmem2         12
P           mkmem3         12
P           mkmem4          5
            natom           2
           natsph3       2
           natsph4       2
            nband1         40
            nband2         40
            nband3         40
            nband4         40
           nbdbuf1          0
           nbdbuf2          2
           nbdbuf3          2
           nbdbuf4          2
           ndtset           4
            ngfft          24      24      24
          ngfftdg          36      36      36
             nkpt1         10
             nkpt2         89
             nkpt3         89
             nkpt4         10
-           npfft1          4
-           npfft2          1
-           npfft3          1
-           npfft4          4
-           npkpt1          4
-           npkpt2         16
-           npkpt3         16
-           npkpt4          4
           nspden           2
           nsppol           2
            nstep1        100
            nstep2         30
            nstep3         30
            nstep4         30
             nsym          48
           ntypat           2
              occ      1.000000  1.000000  1.000000  1.000000  1.000000  1.000000
                       1.000000  1.000000  1.000000  1.000000  1.000000  0.000000
                       0.000000  0.000000  0.000000  0.000000  0.000000  0.000000
                       0.000000  0.000000  0.000000  0.000000  0.000000  0.000000
                       0.000000  0.000000  0.000000  0.000000  0.000000  0.000000
                       0.000000  0.000000  0.000000  0.000000  0.000000  0.000000
                       0.000000  0.000000  0.000000  0.000000
                       1.000000  1.000000  1.000000  1.000000  1.000000  1.000000
                       1.000000  1.000000  1.000000  1.000000  1.000000  0.000000
                       0.000000  0.000000  0.000000  0.000000  0.000000  0.000000
                       0.000000  0.000000  0.000000  0.000000  0.000000  0.000000
                       0.000000  0.000000  0.000000  0.000000  0.000000  0.000000
                       0.000000  0.000000  0.000000  0.000000  0.000000  0.000000
                       0.000000  0.000000  0.000000  0.000000
                       1.000000  1.000000  1.000000  1.000000  1.000000  1.000000
                       1.000000  1.000000  1.000000  1.000000  1.000000  0.000000
                       0.000000  0.000000  0.000000  0.000000  0.000000  0.000000
                       0.000000  0.000000  0.000000  0.000000  0.000000  0.000000
                       0.000000  0.000000  0.000000  0.000000  0.000000  0.000000
                       0.000000  0.000000  0.000000  0.000000  0.000000  0.000000
                       0.000000  0.000000  0.000000  0.000000
                       1.000000  1.000000  1.000000  1.000000  1.000000  1.000000
                       1.000000  1.000000  1.000000  1.000000  1.000000  0.000000
                       0.000000  0.000000  0.000000  0.000000  0.000000  0.000000
                       0.000000  0.000000  0.000000  0.000000  0.000000  0.000000
                       0.000000  0.000000  0.000000  0.000000  0.000000  0.000000
                       0.000000  0.000000  0.000000  0.000000  0.000000  0.000000
                       0.000000  0.000000  0.000000  0.000000
                       1.000000  1.000000  1.000000  1.000000  1.000000  1.000000
                       1.000000  1.000000  1.000000  1.000000  1.000000  0.000000
                       0.000000  0.000000  0.000000  0.000000  0.000000  0.000000
                       0.000000  0.000000  0.000000  0.000000  0.000000  0.000000
                       0.000000  0.000000  0.000000  0.000000  0.000000  0.000000
                       0.000000  0.000000  0.000000  0.000000  0.000000  0.000000
                       0.000000  0.000000  0.000000  0.000000
                       1.000000  1.000000  1.000000  1.000000  1.000000  1.000000
                       1.000000  1.000000  1.000000  1.000000  1.000000  0.000000
                       0.000000  0.000000  0.000000  0.000000  0.000000  0.000000
                       0.000000  0.000000  0.000000  0.000000  0.000000  0.000000
                       0.000000  0.000000  0.000000  0.000000  0.000000  0.000000
                       0.000000  0.000000  0.000000  0.000000  0.000000  0.000000
                       0.000000  0.000000  0.000000  0.000000
                       1.000000  1.000000  1.000000  1.000000  1.000000  1.000000
                       1.000000  1.000000  1.000000  1.000000  1.000000  0.000000
                       0.000000  0.000000  0.000000  0.000000  0.000000  0.000000
                       0.000000  0.000000  0.000000  0.000000  0.000000  0.000000
                       0.000000  0.000000  0.000000  0.000000  0.000000  0.000000
                       0.000000  0.000000  0.000000  0.000000  0.000000  0.000000
                       0.000000  0.000000  0.000000  0.000000
                       1.000000  1.000000  1.000000  1.000000  1.000000  1.000000
                       1.000000  1.000000  1.000000  1.000000  1.000000  0.000000
                       0.000000  0.000000  0.000000  0.000000  0.000000  0.000000
                       0.000000  0.000000  0.000000  0.000000  0.000000  0.000000
                       0.000000  0.000000  0.000000  0.000000  0.000000  0.000000
                       0.000000  0.000000  0.000000  0.000000  0.000000  0.000000
                       0.000000  0.000000  0.000000  0.000000
                       1.000000  1.000000  1.000000  1.000000  1.000000  1.000000
                       1.000000  1.000000  1.000000  1.000000  1.000000  0.000000
                       0.000000  0.000000  0.000000  0.000000  0.000000  0.000000
                       0.000000  0.000000  0.000000  0.000000  0.000000  0.000000
                       0.000000  0.000000  0.000000  0.000000  0.000000  0.000000
                       0.000000  0.000000  0.000000  0.000000  0.000000  0.000000
                       0.000000  0.000000  0.000000  0.000000
                       1.000000  1.000000  1.000000  1.000000  1.000000  1.000000
                       1.000000  1.000000  1.000000  1.000000  1.000000  0.000000
                       0.000000  0.000000  0.000000  0.000000  0.000000  0.000000
                       0.000000  0.000000  0.000000  0.000000  0.000000  0.000000
                       0.000000  0.000000  0.000000  0.000000  0.000000  0.000000
                       0.000000  0.000000  0.000000  0.000000  0.000000  0.000000
                       0.000000  0.000000  0.000000  0.000000
                       1.000000  1.000000  1.000000  1.000000  1.000000  1.000000
                       1.000000  1.000000  1.000000  1.000000  1.000000  0.000000
                       0.000000  0.000000  0.000000  0.000000  0.000000  0.000000
                       0.000000  0.000000  0.000000  0.000000  0.000000  0.000000
                       0.000000  0.000000  0.000000  0.000000  0.000000  0.000000
                       0.000000  0.000000  0.000000  0.000000  0.000000  0.000000
                       0.000000  0.000000  0.000000  0.000000
                       1.000000  1.000000  1.000000  1.000000  1.000000  1.000000
                       1.000000  1.000000  1.000000  1.000000  1.000000  0.000000
                       0.000000  0.000000  0.000000  0.000000  0.000000  0.000000
                       0.000000  0.000000  0.000000  0.000000  0.000000  0.000000
                       0.000000  0.000000  0.000000  0.000000  0.000000  0.000000
                       0.000000  0.000000  0.000000  0.000000  0.000000  0.000000
                       0.000000  0.000000  0.000000  0.000000
                       1.000000  1.000000  1.000000  1.000000  1.000000  1.000000
                       1.000000  1.000000  1.000000  1.000000  1.000000  0.000000
                       0.000000  0.000000  0.000000  0.000000  0.000000  0.000000
                       0.000000  0.000000  0.000000  0.000000  0.000000  0.000000
                       0.000000  0.000000  0.000000  0.000000  0.000000  0.000000
                       0.000000  0.000000  0.000000  0.000000  0.000000  0.000000
                       0.000000  0.000000  0.000000  0.000000
                       1.000000  1.000000  1.000000  1.000000  1.000000  1.000000
                       1.000000  1.000000  1.000000  1.000000  1.000000  0.000000
                       0.000000  0.000000  0.000000  0.000000  0.000000  0.000000
                       0.000000  0.000000  0.000000  0.000000  0.000000  0.000000
                       0.000000  0.000000  0.000000  0.000000  0.000000  0.000000
                       0.000000  0.000000  0.000000  0.000000  0.000000  0.000000
                       0.000000  0.000000  0.000000  0.000000
                       1.000000  1.000000  1.000000  1.000000  1.000000  1.000000
                       1.000000  1.000000  1.000000  1.000000  1.000000  0.000000
                       0.000000  0.000000  0.000000  0.000000  0.000000  0.000000
                       0.000000  0.000000  0.000000  0.000000  0.000000  0.000000
                       0.000000  0.000000  0.000000  0.000000  0.000000  0.000000
                       0.000000  0.000000  0.000000  0.000000  0.000000  0.000000
                       0.000000  0.000000  0.000000  0.000000
                       1.000000  1.000000  1.000000  1.000000  1.000000  1.000000
                       1.000000  1.000000  1.000000  1.000000  1.000000  0.000000
                       0.000000  0.000000  0.000000  0.000000  0.000000  0.000000
                       0.000000  0.000000  0.000000  0.000000  0.000000  0.000000
                       0.000000  0.000000  0.000000  0.000000  0.000000  0.000000
                       0.000000  0.000000  0.000000  0.000000  0.000000  0.000000
                       0.000000  0.000000  0.000000  0.000000
                       1.000000  1.000000  1.000000  1.000000  1.000000  1.000000
                       1.000000  1.000000  1.000000  1.000000  1.000000  0.000000
                       0.000000  0.000000  0.000000  0.000000  0.000000  0.000000
                       0.000000  0.000000  0.000000  0.000000  0.000000  0.000000
                       0.000000  0.000000  0.000000  0.000000  0.000000  0.000000
                       0.000000  0.000000  0.000000  0.000000  0.000000  0.000000
                       0.000000  0.000000  0.000000  0.000000
                       1.000000  1.000000  1.000000  1.000000  1.000000  1.000000
                       1.000000  1.000000  1.000000  1.000000  1.000000  0.000000
                       0.000000  0.000000  0.000000  0.000000  0.000000  0.000000
                       0.000000  0.000000  0.000000  0.000000  0.000000  0.000000
                       0.000000  0.000000  0.000000  0.000000  0.000000  0.000000
                       0.000000  0.000000  0.000000  0.000000  0.000000  0.000000
                       0.000000  0.000000  0.000000  0.000000
                       1.000000  1.000000  1.000000  1.000000  1.000000  1.000000
                       1.000000  1.000000  1.000000  1.000000  1.000000  0.000000
                       0.000000  0.000000  0.000000  0.000000  0.000000  0.000000
                       0.000000  0.000000  0.000000  0.000000  0.000000  0.000000
                       0.000000  0.000000  0.000000  0.000000  0.000000  0.000000
                       0.000000  0.000000  0.000000  0.000000  0.000000  0.000000
                       0.000000  0.000000  0.000000  0.000000
                       1.000000  1.000000  1.000000  1.000000  1.000000  1.000000
                       1.000000  1.000000  1.000000  1.000000  1.000000  0.000000
                       0.000000  0.000000  0.000000  0.000000  0.000000  0.000000
                       0.000000  0.000000  0.000000  0.000000  0.000000  0.000000
                       0.000000  0.000000  0.000000  0.000000  0.000000  0.000000
                       0.000000  0.000000  0.000000  0.000000  0.000000  0.000000
                       0.000000  0.000000  0.000000  0.000000
           occopt           7
        paral_kgb1          1
        paral_kgb2          0
        paral_kgb3          0
        paral_kgb4          1
        pawecutdg      4.50000000E+01 Hartree
        pawfatbnd1          0
        pawfatbnd2          0
        pawfatbnd3          2
        pawfatbnd4          0
         pawmixdg1          1
         pawmixdg2          0
         pawmixdg3          0
         pawmixdg4          1
        pawprtdos1          0
        pawprtdos2          0
        pawprtdos3          0
        pawprtdos4          2
           prtdos1          0
           prtdos2          0
           prtdos3          0
           prtdos4          3
            rprim      2.1584523900E+00  0.0000000000E+00  2.1584523900E+00
                       2.1584523900E+00  2.1584523900E+00  0.0000000000E+00
                       0.0000000000E+00  2.1584523900E+00  2.1584523900E+00
           shiftk      5.00000000E-01  5.00000000E-01  5.00000000E-01
          spgroup         225
           spinat      0.0000000000E+00  0.0000000000E+00  1.0000000000E+00
                       0.0000000000E+00  0.0000000000E+00  0.0000000000E+00
           symrel      1  0  0   0  1  0   0  0  1      -1  0  0   0 -1  0   0  0 -1
                       0 -1  1   0 -1  0   1 -1  0       0  1 -1   0  1  0  -1  1  0
                      -1  0  0  -1  0  1  -1  1  0       1  0  0   1  0 -1   1 -1  0
                       0  1 -1   1  0 -1   0  0 -1       0 -1  1  -1  0  1   0  0  1
                      -1  0  0  -1  1  0  -1  0  1       1  0  0   1 -1  0   1  0 -1
                       0 -1  1   1 -1  0   0 -1  0       0  1 -1  -1  1  0   0  1  0
                       1  0  0   0  0  1   0  1  0      -1  0  0   0  0 -1   0 -1  0
                       0  1 -1   0  0 -1   1  0 -1       0 -1  1   0  0  1  -1  0  1
                      -1  0  1  -1  1  0  -1  0  0       1  0 -1   1 -1  0   1  0  0
                       0 -1  0   1 -1  0   0 -1  1       0  1  0  -1  1  0   0  1 -1
                       1  0 -1   0  0 -1   0  1 -1      -1  0  1   0  0  1   0 -1  1
                       0  1  0   0  0  1   1  0  0       0 -1  0   0  0 -1  -1  0  0
                       1  0 -1   0  1 -1   0  0 -1      -1  0  1   0 -1  1   0  0  1
                       0 -1  0   0 -1  1   1 -1  0       0  1  0   0  1 -1  -1  1  0
                      -1  0  1  -1  0  0  -1  1  0       1  0 -1   1  0  0   1 -1  0
                       0  1  0   1  0  0   0  0  1       0 -1  0  -1  0  0   0  0 -1
                       0  0 -1   0  1 -1   1  0 -1       0  0  1   0 -1  1  -1  0  1
                       1 -1  0   0 -1  1   0 -1  0      -1  1  0   0  1 -1   0  1  0
                       0  0  1   1  0  0   0  1  0       0  0 -1  -1  0  0   0 -1  0
                      -1  1  0  -1  0  0  -1  0  1       1 -1  0   1  0  0   1  0 -1
                       0  0  1   0  1  0   1  0  0       0  0 -1   0 -1  0  -1  0  0
                       1 -1  0   0 -1  0   0 -1  1      -1  1  0   0  1  0   0  1 -1
                       0  0 -1   1  0 -1   0  1 -1       0  0  1  -1  0  1   0 -1  1
                      -1  1  0  -1  0  1  -1  0  0       1 -1  0   1  0 -1   1  0  0
           tolvrs1     1.00000000E-03
           tolvrs2     0.00000000E+00
           tolvrs3     0.00000000E+00
           tolvrs4     0.00000000E+00
           tolwfr1     0.00000000E+00
           tolwfr2     1.00000000E-08
           tolwfr3     1.00000000E-08
           tolwfr4     1.00000000E-08
            typat      1  2
           useylm           1
         wfoptalg1        114
         wfoptalg2         10
         wfoptalg3         10
         wfoptalg4        114
              wtk1       0.03125    0.09375    0.09375    0.03125    0.09375    0.09375
                         0.18750    0.09375    0.09375    0.18750
              wtk2       1.00000    1.00000    1.00000    1.00000    1.00000    1.00000
                         1.00000    1.00000    1.00000    1.00000    1.00000    1.00000
                         1.00000    1.00000    1.00000    1.00000    1.00000    1.00000
                         1.00000    1.00000    1.00000    1.00000    1.00000    1.00000
                         1.00000    1.00000    1.00000    1.00000    1.00000    1.00000
                         1.00000    1.00000    1.00000    1.00000    1.00000    1.00000
                         1.00000    1.00000    1.00000    1.00000    1.00000    1.00000
                         1.00000    1.00000    1.00000    1.00000    1.00000    1.00000
                         1.00000    1.00000
              wtk3       1.00000    1.00000    1.00000    1.00000    1.00000    1.00000
                         1.00000    1.00000    1.00000    1.00000    1.00000    1.00000
                         1.00000    1.00000    1.00000    1.00000    1.00000    1.00000
                         1.00000    1.00000    1.00000    1.00000    1.00000    1.00000
                         1.00000    1.00000    1.00000    1.00000    1.00000    1.00000
                         1.00000    1.00000    1.00000    1.00000    1.00000    1.00000
                         1.00000    1.00000    1.00000    1.00000    1.00000    1.00000
                         1.00000    1.00000    1.00000    1.00000    1.00000    1.00000
                         1.00000    1.00000
              wtk4       0.03125    0.09375    0.09375    0.03125    0.09375    0.09375
                         0.18750    0.09375    0.09375    0.18750
                       outvars : Printing only first  50 k-points.
           xangst      0.0000000000E+00  0.0000000000E+00  0.0000000000E+00
                       0.0000000000E+00  0.0000000000E+00  2.1584523900E+00
            xcart      0.0000000000E+00  0.0000000000E+00  0.0000000000E+00
                       0.0000000000E+00  0.0000000000E+00  4.0788838880E+00
             xred      0.0000000000E+00  0.0000000000E+00  0.0000000000E+00
                       5.0000000000E-01 -5.0000000000E-01  5.0000000000E-01
            znucl       26.00000    8.00000

================================================================================

 chkinp: Checking input parameters for consistency, jdtset=   1.

 chkinp: Checking input parameters for consistency, jdtset=   2.

 chkinp: Checking input parameters for consistency, jdtset=   3.

 chkinp: Checking input parameters for consistency, jdtset=   4.

================================================================================
== DATASET  1 ==================================================================
-   nproc =   16

 Exchange-correlation functional for the present dataset will be:
  GGA: Perdew-Burke-Ernzerhof functional - ixc=11
 Citation for XC functional:
  J.P.Perdew, K.Burke, M.Ernzerhof, PRL 77, 3865 (1996)

 Real(R)+Recip(G) space primitive vectors, cartesian coordinates (Bohr,Bohr^-1):
 R(1)=  4.0788839  0.0000000  4.0788839  G(1)=  0.1225826 -0.1225826  0.1225826
 R(2)=  4.0788839  4.0788839  0.0000000  G(2)=  0.1225826  0.1225826 -0.1225826
 R(3)=  0.0000000  4.0788839  4.0788839  G(3)= -0.1225826  0.1225826  0.1225826
 Unit cell volume ucvol=  1.3572318E+02 bohr^3
 Angles (23,13,12)=  6.00000000E+01  6.00000000E+01  6.00000000E+01 degrees

 Coarse grid specifications (used for wave-functions):

 getcut: wavevector=  0.0000  0.0000  0.0000  ngfft=  24  24  24
         ecut(hartree)=     15.000   => boxcut(ratio)=   2.38640

 getcut : COMMENT -
  Note that boxcut > 2.2 ; recall that boxcut=Gcut(box)/Gcut(sphere) = 2
  is sufficient for exact treatment of convolution.
  Such a large boxcut is a waste : you could raise ecut
  e.g. ecut=   21.355983 Hartrees makes boxcut=2


 Fine grid specifications (used for densities):

 getcut: wavevector=  0.0000  0.0000  0.0000  ngfft=  36  36  36
         ecut(hartree)=     45.000   => boxcut(ratio)=   2.06669

--- Pseudopotential description ------------------------------------------------
- pspini: atom type   1  psp file is ./fe_pbe_v1.2_abinit.paw
- pspatm: opening atomic psp file    ./fe_pbe_v1.2_abinit.paw
- Fe - PAW data extracted from US-psp (D.Vanderbilt) - generated by USpp2Abinit v2.4.0
- 26.00000  16.00000  20140203                znucl, zion, pspdat
    7   11    2    0       584   0.00000      pspcod,pspxc,lmax,lloc,mmax,r2well
 Pseudopotential format is: paw4
 basis_size (lnmax)=  6 (lmn_size= 18), orbitals=   0   0   1   1   2   2
 Spheres core radius: rc_sph= 1.71336280
 4 radial meshes are used:
  - mesh 1: r(i)=AA*[exp(BB*(i-1))-1], size= 584 , AA= 0.95337E-04 BB= 0.16949E-01
  - mesh 2: r(i)=AA*[exp(BB*(i-1))-1], size= 580 , AA= 0.95337E-04 BB= 0.16949E-01
  - mesh 3: r(i)=AA*[exp(BB*(i-1))-1], size= 683 , AA= 0.95337E-04 BB= 0.16949E-01
  - mesh 4: r(i)=AA*[exp(BB*(i-1))-1], size= 695 , AA= 0.95337E-04 BB= 0.16949E-01
 Shapefunction is BESSEL type: shapef(r,l)=aa(1,l)*jl(q(1,l)*r)+aa(2,l)*jl(q(2,l)*r)
 Radius for shape functions = sphere core radius
 Radial grid used for partial waves is grid 1
 Radial grid used for projectors is grid  2
 Radial grid used for (t)core density is grid 1
 Radial grid used for Vloc is grid 3
 Radial grid used for pseudo valence density is grid 4
 Compensation charge density is taken into account in XC energy/potential
 pspatm: atomic psp has been read  and splines computed

- pspini: atom type   2  psp file is ./o_pbe_v1.2_abinit.paw
- pspatm: opening atomic psp file    ./o_pbe_v1.2_abinit.paw
- O - PAW data extracted from US-psp (D.Vanderbilt) - generated by USpp2Abinit v2.4.0
-  8.00000   6.00000  20140203                znucl, zion, pspdat
    7   11    2    0       494   0.00000      pspcod,pspxc,lmax,lloc,mmax,r2well
 Pseudopotential format is: paw4
 basis_size (lnmax)=  5 (lmn_size= 13), orbitals=   0   0   1   1   2
 Spheres core radius: rc_sph= 1.21105161
 5 radial meshes are used:
  - mesh 1: r(i)=AA*[exp(BB*(i-1))-1], size= 494 , AA= 0.30984E-03 BB= 0.16949E-01
  - mesh 2: r(i)=AA*[exp(BB*(i-1))-1], size= 490 , AA= 0.30984E-03 BB= 0.16949E-01
  - mesh 3: r(i)=AA*[exp(BB*(i-1))-1], size= 506 , AA= 0.30984E-03 BB= 0.16949E-01
  - mesh 4: r(i)=AA*[exp(BB*(i-1))-1], size= 613 , AA= 0.30984E-03 BB= 0.16949E-01
  - mesh 5: r(i)=AA*[exp(BB*(i-1))-1], size= 623 , AA= 0.30984E-03 BB= 0.16949E-01
 Shapefunction is BESSEL type: shapef(r,l)=aa(1,l)*jl(q(1,l)*r)+aa(2,l)*jl(q(2,l)*r)
 Radius for shape functions = sphere core radius
 Radial grid used for partial waves is grid 1
 Radial grid used for projectors is grid  2
 Radial grid used for (t)core density is grid 3
 Radial grid used for Vloc is grid 4
 Radial grid used for pseudo valence density is grid 5
 Compensation charge density is taken into account in XC energy/potential
 pspatm: atomic psp has been read  and splines computed

   6.08163965E+02                                ecore*ucvol(ha*bohr**3)
--------------------------------------------------------------------------------

_setup2: Arith. and geom. avg. npw (full set) are      97.500      97.488

================================================================================

     iter   Etot(hartree)     deltaE(h) residm    nres2    magn
 ETOT  1  -141.35515911194    -1.41E+02 1.10E-03 9.60E+02 1.088
 ETOT  2  -144.38803785360    -3.03E+00 1.47E-04 2.85E+03 0.123
 ETOT  3  -140.50034100156     3.89E+00 2.77E-02 1.77E+01 1.896
 ETOT  4  -140.52326029988    -2.29E-02 1.40E-04 1.41E+01 2.242
 ETOT  5  -140.52683307136    -3.57E-03 1.01E-05 1.42E+01 2.425
 ETOT  6  -140.53884095826    -1.20E-02 6.93E-06 1.11E+01 2.826
 ETOT  7  -140.52680845060     1.20E-02 1.15E-05 1.53E+01 2.420
 ETOT  8  -140.55768689384    -3.09E-02 3.67E-05 3.58E+00 3.948
 ETOT  9  -140.56083571127    -3.15E-03 1.38E-05 9.74E-01 3.998
 ETOT 10  -140.55233482929     8.50E-03 1.11E-05 7.39E+00 4.000
 ETOT 11  -140.56153230473    -9.20E-03 9.68E-06 1.37E-01 4.000
 ETOT 12  -140.56164463951    -1.12E-04 5.55E-06 8.02E-02 4.000
 ETOT 13  -140.56171387553    -6.92E-05 6.16E-06 2.62E-02 4.000
 ETOT 14  -140.56173116258    -1.73E-05 2.60E-06 6.03E-03 4.000
 ETOT 15  -140.56173667142    -5.51E-06 3.78E-06 1.89E-04 4.000

 At SCF step   15       nres2   =  1.89E-04 < tolvrs=  1.00E-03 =>converged.

 Cartesian components of stress tensor (hartree/bohr^3)
  sigma(1 1)=  4.07688057E-04  sigma(3 2)=  0.00000000E+00
  sigma(2 2)=  4.07688057E-04  sigma(3 1)=  0.00000000E+00
  sigma(3 3)=  4.07688057E-04  sigma(2 1)=  0.00000000E+00

 Integrated electronic and magnetization densities in atomic spheres:
 ---------------------------------------------------------------------
 Note: Diff(up-dn) is a rough approximation of local magnetic moment
 Atom    Radius    up_density   dn_density  Total(up+dn)  Diff(up-dn)
    1   1.71336     8.266834     4.918829     13.185663     3.348005
    2   1.21105     1.999519     1.747399      3.746919     0.252120
 ---------------------------------------------------------------------
  Sum:             10.266353     6.666228     16.932582     3.600125
 Total magnetization (from the atomic spheres):             3.600125
 Total magnetization (exact up - dn):                       3.999889

 PAW TEST:
 ==== Compensation charge inside spheres ============
 The following values must be close to each other ...
 Compensation charge over spherical meshes =      7.676349029643683
 Compensation charge over fine fft grid    =      7.676459443826972

 ==== Results concerning PAW augmentation regions ====

 Total pseudopotential strength Dij (hartree):
 Atom #  1 - Spin component 1
  -1.05118   0.17872   0.00000   0.00000   0.00000   0.00000   0.00000   0.00000   0.00000   0.00000   0.00000   0.00000 ...
   0.17872   0.04707   0.00000   0.00000   0.00000   0.00000   0.00000   0.00000   0.00000   0.00000   0.00000   0.00000 ...
   0.00000   0.00000  -1.62668   0.00000   0.00000   0.16916   0.00000   0.00000   0.00000   0.00000   0.00000   0.00000 ...
   0.00000   0.00000   0.00000  -1.62668   0.00000   0.00000   0.16916   0.00000   0.00000   0.00000   0.00000   0.00000 ...
   0.00000   0.00000   0.00000   0.00000  -1.62668   0.00000   0.00000   0.16916   0.00000   0.00000   0.00000   0.00000 ...
   0.00000   0.00000   0.16916   0.00000   0.00000   0.04520   0.00000   0.00000   0.00000   0.00000   0.00000   0.00000 ...
   0.00000   0.00000   0.00000   0.16916   0.00000   0.00000   0.04520   0.00000   0.00000   0.00000   0.00000   0.00000 ...
   0.00000   0.00000   0.00000   0.00000   0.16916   0.00000   0.00000   0.04520   0.00000   0.00000   0.00000   0.00000 ...
   0.00000   0.00000   0.00000   0.00000   0.00000   0.00000   0.00000   0.00000  -0.23531   0.00000   0.00000   0.00000 ...
   0.00000   0.00000   0.00000   0.00000   0.00000   0.00000   0.00000   0.00000   0.00000  -0.23531   0.00000   0.00000 ...
   0.00000   0.00000   0.00000   0.00000   0.00000   0.00000   0.00000   0.00000   0.00000   0.00000  -0.24099   0.00000 ...
   0.00000   0.00000   0.00000   0.00000   0.00000   0.00000   0.00000   0.00000   0.00000   0.00000   0.00000  -0.23531 ...
   ...  only 12  components have been written...
 Atom #  1 - Spin component 2
  -1.03043   0.16883   0.00000   0.00000   0.00000   0.00000   0.00000   0.00000   0.00000   0.00000   0.00000   0.00000 ...
   0.16883   0.05018   0.00000   0.00000   0.00000   0.00000   0.00000   0.00000   0.00000   0.00000   0.00000   0.00000 ...
   0.00000   0.00000  -1.53626   0.00000   0.00000   0.14714   0.00000   0.00000   0.00000   0.00000   0.00000   0.00000 ...
   0.00000   0.00000   0.00000  -1.53626   0.00000   0.00000   0.14714   0.00000   0.00000   0.00000   0.00000   0.00000 ...
   0.00000   0.00000   0.00000   0.00000  -1.53626   0.00000   0.00000   0.14714   0.00000   0.00000   0.00000   0.00000 ...
   0.00000   0.00000   0.14714   0.00000   0.00000   0.04997   0.00000   0.00000   0.00000   0.00000   0.00000   0.00000 ...
   0.00000   0.00000   0.00000   0.14714   0.00000   0.00000   0.04997   0.00000   0.00000   0.00000   0.00000   0.00000 ...
   0.00000   0.00000   0.00000   0.00000   0.14714   0.00000   0.00000   0.04997   0.00000   0.00000   0.00000   0.00000 ...
   0.00000   0.00000   0.00000   0.00000   0.00000   0.00000   0.00000   0.00000  -0.14107   0.00000   0.00000   0.00000 ...
   0.00000   0.00000   0.00000   0.00000   0.00000   0.00000   0.00000   0.00000   0.00000  -0.14107   0.00000   0.00000 ...
   0.00000   0.00000   0.00000   0.00000   0.00000   0.00000   0.00000   0.00000   0.00000   0.00000  -0.13555   0.00000 ...
   0.00000   0.00000   0.00000   0.00000   0.00000   0.00000   0.00000   0.00000   0.00000   0.00000   0.00000  -0.14107 ...
   ...  only 12  components have been written...
 Atom #  2 - Spin component 1
   0.79047   1.69349   0.00000   0.00000   0.00000   0.00000   0.00000   0.00000   0.00000   0.00000   0.00000   0.00000 ...
   1.69349   3.62082   0.00000   0.00000   0.00000   0.00000   0.00000   0.00000   0.00000   0.00000   0.00000   0.00000 ...
   0.00000   0.00000  -0.24874   0.00000   0.00000  -0.37103   0.00000   0.00000   0.00000   0.00000   0.00000   0.00000 ...
   0.00000   0.00000   0.00000  -0.24874   0.00000   0.00000  -0.37103   0.00000   0.00000   0.00000   0.00000   0.00000 ...
   0.00000   0.00000   0.00000   0.00000  -0.24874   0.00000   0.00000  -0.37103   0.00000   0.00000   0.00000   0.00000 ...
   0.00000   0.00000  -0.37103   0.00000   0.00000  -0.53290   0.00000   0.00000   0.00000   0.00000   0.00000   0.00000 ...
   0.00000   0.00000   0.00000  -0.37103   0.00000   0.00000  -0.53290   0.00000   0.00000   0.00000   0.00000   0.00000 ...
   0.00000   0.00000   0.00000   0.00000  -0.37103   0.00000   0.00000  -0.53290   0.00000   0.00000   0.00000   0.00000 ...
   0.00000   0.00000   0.00000   0.00000   0.00000   0.00000   0.00000   0.00000   0.01407   0.00000   0.00000   0.00000 ...
   0.00000   0.00000   0.00000   0.00000   0.00000   0.00000   0.00000   0.00000   0.00000   0.01407   0.00000   0.00000 ...
   0.00000   0.00000   0.00000   0.00000   0.00000   0.00000   0.00000   0.00000   0.00000   0.00000   0.01405   0.00000 ...
   0.00000   0.00000   0.00000   0.00000   0.00000   0.00000   0.00000   0.00000   0.00000   0.00000   0.00000   0.01407 ...
   ...  only 12  components have been written...
 Atom #  2 - Spin component 2
   0.78595   1.68326   0.00000   0.00000   0.00000   0.00000   0.00000   0.00000   0.00000   0.00000   0.00000   0.00000 ...
   1.68326   3.59770   0.00000   0.00000   0.00000   0.00000   0.00000   0.00000   0.00000   0.00000   0.00000   0.00000 ...
   0.00000   0.00000  -0.24294   0.00000   0.00000  -0.36102   0.00000   0.00000   0.00000   0.00000   0.00000   0.00000 ...
   0.00000   0.00000   0.00000  -0.24294   0.00000   0.00000  -0.36102   0.00000   0.00000   0.00000   0.00000   0.00000 ...
   0.00000   0.00000   0.00000   0.00000  -0.24294   0.00000   0.00000  -0.36102   0.00000   0.00000   0.00000   0.00000 ...
   0.00000   0.00000  -0.36102   0.00000   0.00000  -0.51568   0.00000   0.00000   0.00000   0.00000   0.00000   0.00000 ...
   0.00000   0.00000   0.00000  -0.36102   0.00000   0.00000  -0.51568   0.00000   0.00000   0.00000   0.00000   0.00000 ...
   0.00000   0.00000   0.00000   0.00000  -0.36102   0.00000   0.00000  -0.51568   0.00000   0.00000   0.00000   0.00000 ...
   0.00000   0.00000   0.00000   0.00000   0.00000   0.00000   0.00000   0.00000   0.01461   0.00000   0.00000   0.00000 ...
   0.00000   0.00000   0.00000   0.00000   0.00000   0.00000   0.00000   0.00000   0.00000   0.01461   0.00000   0.00000 ...
   0.00000   0.00000   0.00000   0.00000   0.00000   0.00000   0.00000   0.00000   0.00000   0.00000   0.01460   0.00000 ...
   0.00000   0.00000   0.00000   0.00000   0.00000   0.00000   0.00000   0.00000   0.00000   0.00000   0.00000   0.01461 ...
   ...  only 12  components have been written...


 Augmentation waves occupancies Rhoij:
 Atom #  1 - Spin component 1
   1.00432   0.02464   0.00000   0.00000   0.00000   0.00000   0.00000   0.00000   0.00000   0.00000   0.00000   0.00000 ...
   0.02464   0.22188   0.00000   0.00000   0.00000   0.00000   0.00000   0.00000   0.00000   0.00000   0.00000   0.00000 ...
   0.00000   0.00000   1.00546   0.00000   0.00000   0.04640   0.00000   0.00000   0.00000   0.00000   0.00000   0.00000 ...
   0.00000   0.00000   0.00000   1.00546   0.00000   0.00000   0.04640   0.00000   0.00000   0.00000   0.00000   0.00000 ...
   0.00000   0.00000   0.00000   0.00000   1.00546   0.00000   0.00000   0.04640   0.00000   0.00000   0.00000   0.00000 ...
   0.00000   0.00000   0.04640   0.00000   0.00000   0.15196   0.00000   0.00000   0.00000   0.00000   0.00000   0.00000 ...
   0.00000   0.00000   0.00000   0.04640   0.00000   0.00000   0.15196   0.00000   0.00000   0.00000   0.00000   0.00000 ...
   0.00000   0.00000   0.00000   0.00000   0.04640   0.00000   0.00000   0.15196   0.00000   0.00000   0.00000   0.00000 ...
   0.00000   0.00000   0.00000   0.00000   0.00000   0.00000   0.00000   0.00000   1.20525   0.00000   0.00000   0.00000 ...
   0.00000   0.00000   0.00000   0.00000   0.00000   0.00000   0.00000   0.00000   0.00000   1.20525   0.00000   0.00000 ...
   0.00000   0.00000   0.00000   0.00000   0.00000   0.00000   0.00000   0.00000   0.00000   0.00000   1.17516   0.00000 ...
   0.00000   0.00000   0.00000   0.00000   0.00000   0.00000   0.00000   0.00000   0.00000   0.00000   0.00000   1.20525 ...
   ...  only 12  components have been written...
 Atom #  1 - Spin component 2
   1.00518   0.03513   0.00000   0.00000   0.00000   0.00000   0.00000   0.00000   0.00000   0.00000   0.00000   0.00000 ...
   0.03513   0.15840   0.00000   0.00000   0.00000   0.00000   0.00000   0.00000   0.00000   0.00000   0.00000   0.00000 ...
   0.00000   0.00000   1.00673   0.00000   0.00000   0.06643   0.00000   0.00000   0.00000   0.00000   0.00000   0.00000 ...
   0.00000   0.00000   0.00000   1.00673   0.00000   0.00000   0.06643   0.00000   0.00000   0.00000   0.00000   0.00000 ...
   0.00000   0.00000   0.00000   0.00000   1.00673   0.00000   0.00000   0.06643   0.00000   0.00000   0.00000   0.00000 ...
   0.00000   0.00000   0.06643   0.00000   0.00000   0.12728   0.00000   0.00000   0.00000   0.00000   0.00000   0.00000 ...
   0.00000   0.00000   0.00000   0.06643   0.00000   0.00000   0.12728   0.00000   0.00000   0.00000   0.00000   0.00000 ...
   0.00000   0.00000   0.00000   0.00000   0.06643   0.00000   0.00000   0.12728   0.00000   0.00000   0.00000   0.00000 ...
   0.00000   0.00000   0.00000   0.00000   0.00000   0.00000   0.00000   0.00000   0.48660   0.00000   0.00000   0.00000 ...
   0.00000   0.00000   0.00000   0.00000   0.00000   0.00000   0.00000   0.00000   0.00000   0.48660   0.00000   0.00000 ...
   0.00000   0.00000   0.00000   0.00000   0.00000   0.00000   0.00000   0.00000   0.00000   0.00000   0.27949   0.00000 ...
   0.00000   0.00000   0.00000   0.00000   0.00000   0.00000   0.00000   0.00000   0.00000   0.00000   0.00000   0.48660 ...
   ...  only 12  components have been written...
 Atom #  2 - Spin component 1
   1.06647  -0.03735   0.00000   0.00000   0.00000   0.00000   0.00000   0.00000   0.00000   0.00000   0.00000   0.00000 ...
  -0.03735   0.00758   0.00000   0.00000   0.00000   0.00000   0.00000   0.00000   0.00000   0.00000   0.00000   0.00000 ...
   0.00000   0.00000   1.54115   0.00000   0.00000  -0.27163   0.00000   0.00000   0.00000   0.00000   0.00000   0.00000 ...
   0.00000   0.00000   0.00000   1.54115   0.00000   0.00000  -0.27163   0.00000   0.00000   0.00000   0.00000   0.00000 ...
   0.00000   0.00000   0.00000   0.00000   1.54115   0.00000   0.00000  -0.27163   0.00000   0.00000   0.00000   0.00000 ...
   0.00000   0.00000  -0.27163   0.00000   0.00000   0.05814   0.00000   0.00000   0.00000   0.00000   0.00000   0.00000 ...
   0.00000   0.00000   0.00000  -0.27163   0.00000   0.00000   0.05814   0.00000   0.00000   0.00000   0.00000   0.00000 ...
   0.00000   0.00000   0.00000   0.00000  -0.27163   0.00000   0.00000   0.05814   0.00000   0.00000   0.00000   0.00000 ...
   0.00000   0.00000   0.00000   0.00000   0.00000   0.00000   0.00000   0.00000   0.00257   0.00000   0.00000   0.00000 ...
   0.00000   0.00000   0.00000   0.00000   0.00000   0.00000   0.00000   0.00000   0.00000   0.00257   0.00000   0.00000 ...
   0.00000   0.00000   0.00000   0.00000   0.00000   0.00000   0.00000   0.00000   0.00000   0.00000   0.00404   0.00000 ...
   0.00000   0.00000   0.00000   0.00000   0.00000   0.00000   0.00000   0.00000   0.00000   0.00000   0.00000   0.00257 ...
   ...  only 12  components have been written...
 Atom #  2 - Spin component 2
   1.08330  -0.05105   0.00000   0.00000   0.00000   0.00000   0.00000   0.00000   0.00000   0.00000   0.00000   0.00000 ...
  -0.05105   0.00364   0.00000   0.00000   0.00000   0.00000   0.00000   0.00000   0.00000   0.00000   0.00000   0.00000 ...
   0.00000   0.00000   1.52942   0.00000   0.00000  -0.31664   0.00000   0.00000   0.00000   0.00000   0.00000   0.00000 ...
   0.00000   0.00000   0.00000   1.52942   0.00000   0.00000  -0.31664   0.00000   0.00000   0.00000   0.00000   0.00000 ...
   0.00000   0.00000   0.00000   0.00000   1.52942   0.00000   0.00000  -0.31664   0.00000   0.00000   0.00000   0.00000 ...
   0.00000   0.00000  -0.31664   0.00000   0.00000   0.06777   0.00000   0.00000   0.00000   0.00000   0.00000   0.00000 ...
   0.00000   0.00000   0.00000  -0.31664   0.00000   0.00000   0.06777   0.00000   0.00000   0.00000   0.00000   0.00000 ...
   0.00000   0.00000   0.00000   0.00000  -0.31664   0.00000   0.00000   0.06777   0.00000   0.00000   0.00000   0.00000 ...
   0.00000   0.00000   0.00000   0.00000   0.00000   0.00000   0.00000   0.00000   0.00329   0.00000   0.00000   0.00000 ...
   0.00000   0.00000   0.00000   0.00000   0.00000   0.00000   0.00000   0.00000   0.00000   0.00329   0.00000   0.00000 ...
   0.00000   0.00000   0.00000   0.00000   0.00000   0.00000   0.00000   0.00000   0.00000   0.00000   0.00035   0.00000 ...
   0.00000   0.00000   0.00000   0.00000   0.00000   0.00000   0.00000   0.00000   0.00000   0.00000   0.00000   0.00329 ...
   ...  only 12  components have been written...


================================================================================

 ----iterations are completed or convergence reached----

 Mean square residual over all n,k,spin=   1.1378E-08; max=  3.7778E-06
 reduced coordinates (array xred) for    2 atoms
       0.000000000000      0.000000000000      0.000000000000
       0.500000000000     -0.500000000000      0.500000000000
 rms dE/dt=  0.0000E+00; max dE/dt=  0.0000E+00; dE/dt below (all hartree)
    1       0.000000000000      0.000000000000      0.000000000000
    2       0.000000000000      0.000000000000      0.000000000000

 cartesian coordinates (angstrom) at end:
    1      0.00000000000000     0.00000000000000     0.00000000000000
    2      0.00000000000000     0.00000000000000     2.15845239000000

 cartesian forces (hartree/bohr) at end:
    1     -0.00000000000000    -0.00000000000000    -0.00000000000000
    2     -0.00000000000000    -0.00000000000000    -0.00000000000000
 frms,max,avg= 0.0000000E+00 0.0000000E+00   0.000E+00  0.000E+00  0.000E+00 h/b

 cartesian forces (eV/Angstrom) at end:
    1     -0.00000000000000    -0.00000000000000    -0.00000000000000
    2     -0.00000000000000    -0.00000000000000    -0.00000000000000
 frms,max,avg= 0.0000000E+00 0.0000000E+00   0.000E+00  0.000E+00  0.000E+00 e/A
 length scales=  1.889726132886  1.889726132886  1.889726132886 bohr
              =  1.000000000000  1.000000000000  1.000000000000 angstroms
 prteigrs : about to open file abinit_o_DS1_EIG
 Fermi (or HOMO) energy (hartree) =   0.33929   Average Vxc (hartree)=  -0.46225
 Magnetization (Bohr magneton)=  3.99988686E+00
 Total spin up =  1.29999434E+01   Total spin down =  9.00005657E+00
 Eigenvalues (hartree) for nkpt=  10  k points, SPIN UP:
 kpt#   1, nband= 40, wtk=  0.03125, kpt= -0.1250  0.0000  0.0000 (reduced coord)
  -2.96470   -1.71633   -1.71607   -1.71607   -0.41944    0.14625    0.15768    0.15768
   0.20144    0.20144    0.21271    0.24532    0.24532    0.37358    0.82015    0.93891
   0.93891    0.98713    1.05864    1.05864    1.15468    1.28211    1.28211    1.46079
   1.51536    1.51536    1.66833    1.95596    1.95596    2.10239    2.23460    2.23992
   2.23992    2.33409    2.38768    2.38768    2.68807    2.68807    2.72496    2.80422
      occupation numbers for kpt#   1
   1.00000    1.00000    1.00000    1.00000    1.00000    1.00000    1.00000    1.00000
   1.00000    1.00000    1.00000    1.00000    1.00000    0.00000    0.00000    0.00000
   0.00000    0.00000    0.00000    0.00000    0.00000    0.00000    0.00000    0.00000
   0.00000    0.00000    0.00000    0.00000    0.00000    0.00000    0.00000    0.00000
   0.00000    0.00000    0.00000    0.00000    0.00000    0.00000    0.00000    0.00000
 prteigrs : prtvol=0 or 1, do not print more k-points.

 Eigenvalues (hartree) for nkpt=  10  k points, SPIN DOWN:
 kpt#   1, nband= 40, wtk=  0.03125, kpt= -0.1250  0.0000  0.0000 (reduced coord)
  -2.81182   -1.56696   -1.56663   -1.56663   -0.40010    0.17590    0.20082    0.20082
   0.32007    0.32060    0.32060    0.36249    0.36249    0.40284    0.84198    0.97588
   0.97588    1.01049    1.10644    1.10644    1.20155    1.32864    1.32864    1.47872
   1.53100    1.53100    1.70874    1.98710    1.98710    2.14087    2.26241    2.26241
   2.26580    2.35607    2.41843    2.41843    2.72040    2.72040    2.74025    2.82728
      occupation numbers for kpt#   1
   1.00000    1.00000    1.00000    1.00000    1.00000    1.00000    1.00000    1.00000
   0.99672    0.99591    0.99591    0.00052    0.00052    0.00000    0.00000    0.00000
   0.00000    0.00000    0.00000    0.00000    0.00000    0.00000    0.00000    0.00000
   0.00000    0.00000    0.00000    0.00000    0.00000    0.00000    0.00000    0.00000
   0.00000    0.00000    0.00000    0.00000    0.00000    0.00000    0.00000    0.00000
 prteigrs : prtvol=0 or 1, do not print more k-points.


--------------------------------------------------------------------------------
 Components of total free energy (in Hartree) :

    Kinetic energy  =  2.36783485381822E+01
    Hartree energy  =  3.65530996830337E+01
    XC energy       = -1.77001688070447E+01
    Ewald energy    = -9.48794132199128E+01
    PspCore energy  =  4.48091453166479E+00
    Loc. psp. energy= -1.05260697485297E+02
    Spherical terms =  1.25681137355204E+01
    >>>>> Internal E= -1.40559803023853E+02

    -kT*entropy     = -1.77404573104422E-03
    >>>>>>>>> Etotal= -1.40561577069584E+02

 "Double-counting" decomposition of free energy:
    Band energy     = -1.41666432786947E+01
    Ewald energy    = -9.48794132199128E+01
    PspCore energy  =  4.48091453166479E+00
    Dble-C XC-energy= -3.27168489017165E+01
    Spherical terms = -3.27797175703408E+00
    >>>>> Internal E= -1.40559962625693E+02

    -kT*entropy     = -1.77404573104422E-03
    >>>> Etotal (DC)= -1.40561736671424E+02

  >Total energy in eV           = -3.82487502960743E+03
  >Total DC energy in eV        = -3.82487937259436E+03
--------------------------------------------------------------------------------

 Cartesian components of stress tensor (hartree/bohr^3)
  sigma(1 1)=  4.07688057E-04  sigma(3 2)=  0.00000000E+00
  sigma(2 2)=  4.07688057E-04  sigma(3 1)=  0.00000000E+00
  sigma(3 3)=  4.07688057E-04  sigma(2 1)=  0.00000000E+00

-Cartesian components of stress tensor (GPa)         [Pressure= -1.1995E+01 GPa]
- sigma(1 1)=  1.19945947E+01  sigma(3 2)=  0.00000000E+00
- sigma(2 2)=  1.19945947E+01  sigma(3 1)=  0.00000000E+00
- sigma(3 3)=  1.19945947E+01  sigma(2 1)=  0.00000000E+00

================================================================================
== DATASET  2 ==================================================================
-   nproc =   16

 mkfilename : getden/=0, take file _DEN from output of DATASET   1.

 Exchange-correlation functional for the present dataset will be:
  GGA: Perdew-Burke-Ernzerhof functional - ixc=11
 Citation for XC functional:
  J.P.Perdew, K.Burke, M.Ernzerhof, PRL 77, 3865 (1996)

 Real(R)+Recip(G) space primitive vectors, cartesian coordinates (Bohr,Bohr^-1):
 R(1)=  4.0788839  0.0000000  4.0788839  G(1)=  0.1225826 -0.1225826  0.1225826
 R(2)=  4.0788839  4.0788839  0.0000000  G(2)=  0.1225826  0.1225826 -0.1225826
 R(3)=  0.0000000  4.0788839  4.0788839  G(3)= -0.1225826  0.1225826  0.1225826
 Unit cell volume ucvol=  1.3572318E+02 bohr^3
 Angles (23,13,12)=  6.00000000E+01  6.00000000E+01  6.00000000E+01 degrees

 Coarse grid specifications (used for wave-functions):

 getcut: wavevector=  0.0000  0.0000  0.0000  ngfft=  24  24  24
         ecut(hartree)=     15.000   => boxcut(ratio)=   2.38640

 getcut : COMMENT -
  Note that boxcut > 2.2 ; recall that boxcut=Gcut(box)/Gcut(sphere) = 2
  is sufficient for exact treatment of convolution.
  Such a large boxcut is a waste : you could raise ecut
  e.g. ecut=   21.355983 Hartrees makes boxcut=2


 Fine grid specifications (used for densities):

 getcut: wavevector=  0.0000  0.0000  0.0000  ngfft=  36  36  36
         ecut(hartree)=     45.000   => boxcut(ratio)=   2.06669
--------------------------------------------------------------------------------


================================================================================
 prteigrs : about to open file abinit_o_DS2_EIG

 SPIN UP channel
 Non-SCF case, kpt    1 (  0.00000  0.00000  0.00000), residuals and eigenvalues=
  9.56E-09  1.23E-09  1.59E-09  5.05E-09  4.11E-09  6.42E-10  3.80E-09  9.32E-09
  3.42E-10  2.33E-09  7.02E-09  7.25E-10  2.19E-09  9.24E-10  9.77E-10  2.46E-10
  2.91E-09  7.30E-09  1.57E-09  2.17E-09  6.47E-09  5.50E-10  2.20E-09  2.50E-10
  6.77E-10  5.03E-09  1.72E-09  1.44E-09  3.73E-09  4.30E-09  1.26E-09  1.44E-09
  1.61E-09  3.07E-09  4.79E-09  3.21E-09  7.19E-09  8.60E-09  1.09E-07  1.48E-06
 -2.9646E+00 -1.7159E+00 -1.7159E+00 -1.7159E+00 -4.2498E-01  1.9647E-01
  1.9647E-01  1.9647E-01  1.9656E-01  1.9656E-01  1.9656E-01  2.0567E-01
  2.0567E-01  3.3672E-01  8.9613E-01  9.5990E-01  9.5990E-01  9.5990E-01
  1.0908E+00  1.0908E+00  1.0908E+00  1.2053E+00  1.2053E+00  1.5159E+00
  1.5159E+00  1.5159E+00  1.5950E+00  2.0902E+00  2.0902E+00  2.0902E+00
  2.2220E+00  2.2220E+00  2.2447E+00  2.2447E+00  2.2447E+00  2.3257E+00
  2.8356E+00  2.8356E+00  2.8356E+00  2.8859E+00
  prteigrs : nnsclo,ikpt=   30    1 max resid (incl. the buffer)=  1.48249E-06
 Non-SCF case, kpt    2 (  0.03333  0.03333  0.00000), residuals and eigenvalues=
  4.10E-09  4.36E-09  1.63E-09  9.09E-09  9.88E-10  1.11E-09  3.24E-09  3.88E-09
  4.98E-09  6.22E-09  8.25E-09  2.20E-09  2.81E-09  1.19E-09  6.64E-09  1.63E-09
  8.80E-09  5.94E-09  7.75E-09  7.40E-10  7.98E-09  2.74E-10  3.94E-09  4.52E-09
  4.07E-10  5.20E-09  1.19E-09  2.35E-09  2.13E-09  7.06E-09  1.28E-09  5.36E-09
  8.62E-09  4.16E-09  6.49E-09  9.87E-09  9.69E-09  7.27E-09  1.32E-08  2.39E-07
 -2.9646E+00 -1.7160E+00 -1.7159E+00 -1.7159E+00 -4.2444E-01  1.8028E-01
  1.8846E-01  1.8846E-01  1.9616E-01  2.0450E-01  2.0450E-01  2.0582E-01
  2.1834E-01  3.4113E-01  8.8521E-01  9.5451E-01  9.5451E-01  9.7377E-01
  1.0694E+00  1.0987E+00  1.0987E+00  1.2060E+00  1.2238E+00  1.5084E+00
  1.5151E+00  1.5151E+00  1.6045E+00  2.0612E+00  2.0807E+00  2.0807E+00
  2.2239E+00  2.2451E+00  2.2531E+00  2.2546E+00  2.2546E+00  2.3268E+00
  2.8231E+00  2.8231E+00  2.8249E+00  2.8636E+00
  prteigrs : nnsclo,ikpt=   30    2 max resid (incl. the buffer)=  2.38530E-07
 Non-SCF case, kpt    3 (  0.06667  0.06667  0.00000), residuals and eigenvalues=
  1.76E-09  8.49E-09  1.09E-09  5.98E-09  4.01E-09  7.35E-10  1.04E-09  2.90E-09
  1.56E-09  6.88E-09  2.41E-09  6.93E-09  2.06E-09  5.27E-09  3.22E-09  7.79E-10
  1.08E-09  1.45E-09  1.91E-09  4.15E-09  5.66E-09  1.33E-09  2.60E-09  1.82E-09
  2.52E-09  4.68E-09  4.42E-09  1.43E-09  3.15E-09  7.65E-09  2.56E-09  3.66E-09
  7.65E-09  9.94E-09  4.80E-09  6.31E-09  3.23E-09  8.95E-09  2.00E-07  3.42E-06
 -2.9646E+00 -1.7160E+00 -1.7159E+00 -1.7159E+00 -4.2283E-01  1.5926E-01
  1.8100E-01  1.8100E-01  1.9502E-01  2.0627E-01  2.1238E-01  2.1238E-01
  2.3110E-01  3.5370E-01  8.6464E-01  9.4142E-01  9.4142E-01  1.0032E+00
  1.0259E+00  1.1195E+00  1.1195E+00  1.2081E+00  1.2593E+00  1.4933E+00
  1.5130E+00  1.5130E+00  1.6291E+00  2.0061E+00  2.0578E+00  2.0578E+00
  2.2295E+00  2.2464E+00  2.2793E+00  2.2793E+00  2.3142E+00  2.3298E+00
  2.7681E+00  2.7681E+00  2.7955E+00  2.8317E+00
  prteigrs : nnsclo,ikpt=   30    3 max resid (incl. the buffer)=  3.41594E-06
 Non-SCF case, kpt    4 (  0.10000  0.10000  0.00000), residuals and eigenvalues=
  7.67E-09  6.68E-09  7.57E-10  4.71E-09  2.89E-09  1.12E-09  4.28E-09  7.88E-09
  4.66E-09  5.04E-09  5.21E-10  9.51E-09  3.21E-09  1.31E-09  1.70E-10  4.50E-10
  1.81E-09  3.39E-10  9.22E-09  6.15E-10  4.57E-09  3.73E-09  4.97E-09  4.59E-10
  5.27E-10  6.33E-10  1.73E-09  4.49E-09  2.65E-09  4.11E-09  6.13E-09  4.89E-09
  1.89E-09  2.94E-09  2.27E-09  6.67E-09  5.54E-09  9.73E-09  8.18E-06  1.22E-04
 -2.9646E+00 -1.7161E+00 -1.7160E+00 -1.7160E+00 -4.2025E-01  1.3844E-01
  1.7413E-01  1.7413E-01  1.9318E-01  2.0698E-01  2.1982E-01  2.1982E-01
  2.4030E-01  3.7266E-01  8.4349E-01  9.2562E-01  9.2562E-01  9.7652E-01
  1.0390E+00  1.1483E+00  1.1483E+00  1.2117E+00  1.2948E+00  1.4756E+00
  1.5096E+00  1.5096E+00  1.6641E+00  1.9468E+00  2.0295E+00  2.0295E+00
  2.2378E+00  2.2484E+00  2.3088E+00  2.3088E+00  2.3338E+00  2.3833E+00
  2.6890E+00  2.6890E+00  2.7554E+00  2.8081E+00
  prteigrs : nnsclo,ikpt=   30    4 max resid (incl. the buffer)=  1.21809E-04
 Non-SCF case, kpt    5 (  0.13333  0.13333  0.00000), residuals and eigenvalues=
  1.75E-09  2.04E-09  1.74E-09  3.27E-09  9.76E-09  4.87E-10  4.70E-10  2.11E-09
  9.53E-09  4.29E-09  1.13E-09  1.61E-09  2.03E-09  1.68E-09  1.02E-09  2.65E-09
  5.49E-09  4.28E-09  2.44E-09  4.02E-09  6.56E-09  7.46E-10  2.08E-09  1.55E-09
  4.17E-10  2.46E-09  4.44E-09  2.27E-09  1.12E-09  2.58E-09  3.39E-09  3.00E-09
  1.72E-09  8.66E-09  4.10E-09  4.32E-09  1.66E-09  9.75E-09  3.69E-06  1.10E-05
 -2.9646E+00 -1.7162E+00 -1.7161E+00 -1.7161E+00 -4.1684E-01  1.1892E-01
  1.6780E-01  1.6780E-01  1.9069E-01  2.0795E-01  2.2650E-01  2.2650E-01
  2.4677E-01  3.9563E-01  8.2387E-01  9.1006E-01  9.1006E-01  9.2623E-01
  1.0790E+00  1.1819E+00  1.1819E+00  1.2166E+00  1.3247E+00  1.4588E+00
  1.5044E+00  1.5044E+00  1.7083E+00  1.8879E+00  2.0000E+00  2.0000E+00
  2.2476E+00  2.2506E+00  2.3348E+00  2.3348E+00  2.3373E+00  2.4547E+00
  2.6121E+00  2.6121E+00  2.7136E+00  2.7239E+00
  prteigrs : nnsclo,ikpt=   30    5 max resid (incl. the buffer)=  1.10251E-05
 Non-SCF case, kpt    6 (  0.16667  0.16667  0.00000), residuals and eigenvalues=
  6.72E-10  5.77E-10  9.73E-10  2.77E-09  3.04E-09  3.11E-09  1.64E-09  4.07E-09
  7.38E-09  4.93E-10  7.10E-10  1.25E-09  8.40E-09  1.82E-09  1.21E-09  2.19E-09
  2.71E-09  7.42E-09  3.05E-09  4.81E-10  5.60E-09  4.11E-09  2.53E-09  2.16E-09
  2.52E-09  6.65E-09  1.19E-09  3.00E-09  7.51E-10  1.54E-09  2.03E-09  2.36E-09
  6.69E-09  2.03E-09  5.79E-09  6.88E-09  3.71E-09  5.33E-09  5.23E-08  3.29E-06
 -2.9646E+00 -1.7164E+00 -1.7161E+00 -1.7161E+00 -4.1280E-01  1.0155E-01
  1.6276E-01  1.6276E-01  1.8776E-01  2.0915E-01  2.3240E-01  2.3240E-01
  2.5139E-01  4.2049E-01  8.0630E-01  8.7718E-01  8.9641E-01  8.9641E-01
  1.1226E+00  1.2190E+00  1.2190E+00  1.2232E+00  1.3455E+00  1.4468E+00
  1.4988E+00  1.4988E+00  1.7605E+00  1.8308E+00  1.9714E+00  1.9714E+00
  2.2531E+00  2.2576E+00  2.3378E+00  2.3460E+00  2.3460E+00  2.5263E+00
  2.5504E+00  2.5504E+00  2.6362E+00  2.6764E+00
  prteigrs : nnsclo,ikpt=   30    6 max resid (incl. the buffer)=  3.29425E-06
 Non-SCF case, kpt    7 (  0.20000  0.20000  0.00000), residuals and eigenvalues=
  6.52E-09  6.38E-10  7.48E-10  1.72E-09  1.47E-09  1.78E-09  5.68E-10  8.12E-09
  3.36E-09  5.04E-09  4.28E-09  6.27E-09  9.83E-09  9.43E-09  3.73E-09  2.95E-10
  9.54E-10  1.95E-09  1.65E-09  2.45E-09  8.05E-10  2.70E-09  8.57E-10  4.92E-10
  1.53E-09  9.53E-09  5.61E-10  6.04E-09  1.20E-09  4.15E-09  3.17E-09  9.89E-09
  3.11E-09  5.13E-09  6.87E-09  3.37E-09  4.94E-09  8.71E-09  5.41E-08  1.30E-06
 -2.9645E+00 -1.7166E+00 -1.7162E+00 -1.7162E+00 -4.0836E-01  8.6744E-02
  1.5859E-01  1.5859E-01  1.8447E-01  2.1052E-01  2.3709E-01  2.3709E-01
  2.5461E-01  4.4535E-01  7.9083E-01  8.3068E-01  8.8524E-01  8.8524E-01
  1.1695E+00  1.2315E+00  1.2588E+00  1.2588E+00  1.3530E+00  1.4448E+00
  1.4919E+00  1.4919E+00  1.7761E+00  1.8193E+00  1.9445E+00  1.9445E+00
  2.2541E+00  2.2651E+00  2.3254E+00  2.3254E+00  2.3334E+00  2.5194E+00
  2.5194E+00  2.5484E+00  2.5949E+00  2.6491E+00
  prteigrs : nnsclo,ikpt=   30    7 max resid (incl. the buffer)=  1.29603E-06
 Non-SCF case, kpt    8 (  0.23333  0.23333  0.00000), residuals and eigenvalues=
  9.85E-10  7.52E-10  7.37E-10  3.99E-09  2.62E-09  3.84E-09  4.06E-10  7.68E-10
  5.38E-09  4.83E-09  9.53E-10  3.76E-09  1.48E-09  4.66E-09  1.92E-09  3.54E-10
  4.43E-10  6.46E-09  3.18E-10  8.19E-10  9.47E-10  6.63E-09  7.30E-10  7.86E-10
  1.05E-09  5.01E-09  9.77E-09  2.66E-09  7.97E-10  1.01E-09  5.49E-09  2.38E-09
  2.75E-09  4.10E-09  2.70E-09  9.59E-09  5.94E-09  5.38E-09  1.18E-06  6.25E-06
 -2.9645E+00 -1.7167E+00 -1.7163E+00 -1.7163E+00 -4.0378E-01  7.4946E-02
  1.5543E-01  1.5543E-01  1.8099E-01  2.1198E-01  2.4045E-01  2.4045E-01
  2.5662E-01  4.6885E-01  7.7744E-01  7.8784E-01  8.7688E-01  8.7688E-01
  1.2195E+00  1.2414E+00  1.3006E+00  1.3006E+00  1.3475E+00  1.4546E+00
  1.4841E+00  1.4841E+00  1.7239E+00  1.8831E+00  1.9198E+00  1.9198E+00
  2.2500E+00  2.2631E+00  2.2731E+00  2.2731E+00  2.3284E+00  2.4673E+00
  2.5180E+00  2.5180E+00  2.6340E+00  2.6568E+00
  prteigrs : nnsclo,ikpt=   30    8 max resid (incl. the buffer)=  6.24644E-06
 Non-SCF case, kpt    9 (  0.26667  0.26667  0.00000), residuals and eigenvalues=
  6.52E-09  3.37E-09  1.45E-09  3.74E-09  7.73E-09  9.57E-09  1.18E-09  1.66E-09
  4.49E-10  4.23E-10  1.38E-09  3.84E-09  4.31E-10  1.49E-09  9.62E-10  1.24E-09
  8.11E-10  6.67E-09  2.54E-09  1.32E-09  4.44E-09  2.74E-09  5.09E-09  3.02E-09
  9.69E-10  1.79E-09  4.10E-10  7.18E-10  3.27E-09  9.07E-10  3.60E-09  9.87E-09
  5.93E-09  4.18E-09  3.84E-09  1.00E-08  8.46E-09  9.39E-09  6.31E-06  6.45E-05
 -2.9645E+00 -1.7169E+00 -1.7163E+00 -1.7163E+00 -3.9930E-01  6.6169E-02
  1.5321E-01  1.5321E-01  1.7746E-01  2.1349E-01  2.4229E-01  2.4229E-01
  2.5747E-01  4.8969E-01  7.4976E-01  7.6599E-01  8.7133E-01  8.7133E-01
  1.2531E+00  1.2726E+00  1.3350E+00  1.3439E+00  1.3439E+00  1.4715E+00
  1.4757E+00  1.4757E+00  1.6745E+00  1.8975E+00  1.8975E+00  1.9501E+00
  2.2068E+00  2.2068E+00  2.2312E+00  2.2426E+00  2.3321E+00  2.4039E+00
  2.5282E+00  2.5282E+00  2.6306E+00  2.7053E+00
  prteigrs : nnsclo,ikpt=   30    9 max resid (incl. the buffer)=  6.44595E-05
 Non-SCF case, kpt   10 (  0.30000  0.30000  0.00000), residuals and eigenvalues=
  6.56E-09  1.93E-09  1.80E-09  5.42E-09  6.66E-09  2.74E-09  8.13E-10  2.09E-09
  3.82E-09  3.19E-10  4.34E-09  6.81E-09  1.24E-09  1.57E-09  9.10E-10  9.11E-09
  4.18E-10  9.10E-09  6.98E-10  6.36E-10  6.46E-09  7.23E-10  6.38E-10  1.26E-09
  5.61E-09  7.73E-09  9.34E-09  1.01E-09  1.73E-09  3.04E-09  4.62E-09  6.74E-09
  8.80E-09  1.76E-09  8.13E-09  4.68E-09  9.06E-09  3.85E-09  1.92E-06  2.93E-05
 -2.9644E+00 -1.7171E+00 -1.7164E+00 -1.7164E+00 -3.9516E-01  6.0779E-02
  1.5194E-01  1.5194E-01  1.7404E-01  2.1497E-01  2.4295E-01  2.4295E-01
  2.5680E-01  5.0676E-01  7.1751E-01  7.5640E-01  8.6831E-01  8.6831E-01
  1.2667E+00  1.3212E+00  1.3287E+00  1.3879E+00  1.3879E+00  1.4681E+00
  1.4681E+00  1.4917E+00  1.6279E+00  1.8779E+00  1.8779E+00  2.0182E+00
  2.1368E+00  2.1368E+00  2.1853E+00  2.2085E+00  2.3446E+00  2.3713E+00
  2.5407E+00  2.5407E+00  2.6315E+00  2.6585E+00
  prteigrs : nnsclo,ikpt=   30   10 max resid (incl. the buffer)=  2.92769E-05
 Non-SCF case, kpt   11 (  0.33333  0.33333  0.00000), residuals and eigenvalues=
  4.73E-09  6.73E-09  9.13E-10  5.58E-09  2.23E-09  1.07E-09  6.90E-10  1.97E-09
  3.60E-09  1.49E-09  2.79E-09  4.22E-09  1.05E-09  1.26E-09  2.11E-09  3.12E-09
  7.41E-10  5.46E-09  3.95E-09  2.14E-09  3.52E-10  4.08E-10  8.56E-10  1.20E-09
  4.55E-09  2.38E-09  4.18E-09  1.06E-09  4.53E-09  1.96E-09  3.24E-09  4.42E-09
  9.20E-09  9.31E-09  8.40E-09  3.50E-09  6.08E-09  8.66E-09  1.77E-06  3.99E-07
 -2.9644E+00 -1.7173E+00 -1.7165E+00 -1.7165E+00 -3.9154E-01  5.8160E-02
  1.5138E-01  1.5138E-01  1.7089E-01  2.1636E-01  2.4251E-01  2.4251E-01
  2.5450E-01  5.1868E-01  6.9212E-01  7.4854E-01  8.6733E-01  8.6733E-01
  1.2820E+00  1.3081E+00  1.3876E+00  1.4269E+00  1.4269E+00  1.4668E+00
  1.4668E+00  1.5134E+00  1.5843E+00  1.8608E+00  1.8608E+00  2.0675E+00
  2.0675E+00  2.0833E+00  2.1172E+00  2.1708E+00  2.3613E+00  2.3651E+00
  2.5528E+00  2.5528E+00  2.6174E+00  2.6265E+00
  prteigrs : nnsclo,ikpt=   30   11 max resid (incl. the buffer)=  1.76640E-06
 Non-SCF case, kpt   12 (  0.36667  0.36667  0.00000), residuals and eigenvalues=
  3.34E-09  1.85E-09  1.46E-09  3.25E-09  1.88E-09  4.25E-10  4.10E-09  4.07E-09
  3.52E-09  2.34E-09  3.79E-09  6.55E-09  7.52E-10  3.13E-10  3.40E-10  4.24E-09
  2.04E-10  1.93E-09  1.71E-09  9.51E-09  3.74E-10  1.34E-09  8.23E-09  4.52E-09
  6.95E-09  3.16E-09  8.67E-09  5.40E-09  8.32E-09  1.73E-09  5.15E-09  6.87E-09
  9.85E-09  4.96E-09  4.31E-09  5.43E-09  8.22E-09  8.18E-09  5.08E-09  1.51E-08
 -2.9644E+00 -1.7174E+00 -1.7165E+00 -1.7165E+00 -3.8854E-01  5.8425E-02
  1.5154E-01  1.5154E-01  1.6812E-01  2.1760E-01  2.4133E-01  2.4133E-01
  2.5097E-01  5.2600E-01  6.7425E-01  7.4228E-01  8.6796E-01  8.6796E-01
  1.2970E+00  1.2992E+00  1.4378E+00  1.4378E+00  1.4494E+00  1.4958E+00
  1.4958E+00  1.5356E+00  1.5439E+00  1.8461E+00  1.8461E+00  2.0009E+00
  2.0009E+00  2.0403E+00  2.1099E+00  2.1693E+00  2.3722E+00  2.3797E+00
  2.5641E+00  2.5641E+00  2.5791E+00  2.6075E+00
  prteigrs : nnsclo,ikpt=   30   12 max resid (incl. the buffer)=  1.51106E-08
 Non-SCF case, kpt   13 (  0.40000  0.40000  0.00000), residuals and eigenvalues=
  1.31E-09  2.07E-09  1.65E-09  2.89E-09  3.64E-09  7.79E-09  1.13E-09  2.59E-09
  8.82E-09  1.23E-09  6.99E-10  4.69E-09  4.80E-09  1.59E-09  3.81E-09  9.44E-10
  1.29E-09  1.82E-09  7.74E-09  2.83E-09  2.17E-09  4.23E-09  1.36E-09  2.79E-09
  6.12E-10  4.26E-09  3.53E-09  3.92E-09  8.88E-09  6.81E-10  6.12E-09  5.50E-09
  7.32E-09  8.72E-09  3.43E-09  8.38E-09  6.12E-09  8.85E-09  8.09E-09  1.77E-08
 -2.9644E+00 -1.7175E+00 -1.7166E+00 -1.7166E+00 -3.8623E-01  6.0229E-02
  1.5183E-01  1.5183E-01  1.6585E-01  2.1859E-01  2.3963E-01  2.3963E-01
  2.4655E-01  5.2874E-01  6.6306E-01  7.3749E-01  8.6928E-01  8.6928E-01
  1.2882E+00  1.3181E+00  1.4332E+00  1.4332E+00  1.5068E+00  1.5137E+00
  1.5420E+00  1.5420E+00  1.5569E+00  1.8319E+00  1.8319E+00  1.9393E+00
  1.9393E+00  1.9616E+00  2.0785E+00  2.2248E+00  2.3859E+00  2.3963E+00
  2.5432E+00  2.5743E+00  2.5743E+00  2.5790E+00
  prteigrs : nnsclo,ikpt=   30   13 max resid (incl. the buffer)=  1.77051E-08
 Non-SCF case, kpt   14 (  0.43333  0.43333  0.00000), residuals and eigenvalues=
  8.27E-09  4.18E-09  8.69E-10  2.82E-09  2.20E-09  3.05E-09  5.20E-10  2.56E-09
  4.40E-09  3.81E-09  7.09E-10  3.26E-09  1.53E-09  9.02E-09  2.54E-10  8.11E-09
  2.57E-10  5.02E-09  2.41E-09  3.40E-09  3.54E-10  8.02E-10  6.48E-10  6.31E-10
  4.85E-09  1.04E-09  1.58E-09  2.89E-09  4.65E-09  8.18E-10  3.04E-09  7.69E-09
  3.18E-09  3.69E-09  9.71E-09  3.96E-09  4.10E-09  5.23E-09  2.54E-08  1.96E-07
 -2.9644E+00 -1.7176E+00 -1.7166E+00 -1.7166E+00 -3.8461E-01  6.2950E-02
  1.5247E-01  1.5247E-01  1.6416E-01  2.1936E-01  2.3808E-01  2.3808E-01
  2.4217E-01  5.2872E-01  6.5753E-01  7.3415E-01  8.7087E-01  8.7087E-01
  1.2819E+00  1.3380E+00  1.4282E+00  1.4282E+00  1.4739E+00  1.5753E+00
  1.5802E+00  1.5901E+00  1.5901E+00  1.8153E+00  1.8153E+00  1.8840E+00
  1.8882E+00  1.8882E+00  2.0479E+00  2.2810E+00  2.4041E+00  2.4050E+00
  2.5103E+00  2.5538E+00  2.5829E+00  2.5829E+00
  prteigrs : nnsclo,ikpt=   30   14 max resid (incl. the buffer)=  1.95940E-07
 Non-SCF case, kpt   15 (  0.46667  0.46667  0.00000), residuals and eigenvalues=
  8.13E-09  1.15E-09  1.57E-09  3.56E-09  1.46E-09  1.88E-09  4.11E-09  9.98E-09
  5.41E-09  3.58E-09  7.50E-09  9.13E-09  3.92E-10  3.75E-09  5.60E-09  3.14E-10
  1.89E-09  6.38E-09  5.26E-10  4.36E-10  1.13E-09  7.87E-09  4.12E-10  2.16E-09
  3.08E-09  5.43E-09  2.87E-09  1.73E-09  4.78E-09  1.06E-09  4.81E-10  6.12E-09
  2.82E-09  3.69E-09  5.86E-09  7.18E-09  6.94E-09  4.38E-09  1.33E-08  8.93E-08
 -2.9644E+00 -1.7177E+00 -1.7167E+00 -1.7167E+00 -3.8365E-01  6.4974E-02
  1.5277E-01  1.5277E-01  1.6309E-01  2.1983E-01  2.3695E-01  2.3695E-01
  2.3882E-01  5.2778E-01  6.5477E-01  7.3217E-01  8.7191E-01  8.7191E-01
  1.2781E+00  1.3565E+00  1.4245E+00  1.4245E+00  1.4474E+00  1.5879E+00
  1.6338E+00  1.6338E+00  1.6470E+00  1.7895E+00  1.7895E+00  1.8102E+00
  1.8585E+00  1.8585E+00  2.0269E+00  2.3302E+00  2.3969E+00  2.4249E+00
  2.4805E+00  2.5394E+00  2.5885E+00  2.5885E+00
  prteigrs : nnsclo,ikpt=   30   15 max resid (incl. the buffer)=  8.92817E-08
 Non-SCF case, kpt   16 (  0.50000  0.50000  0.00000), residuals and eigenvalues=
  8.65E-10  2.30E-09  1.25E-09  2.53E-09  8.01E-09  5.30E-10  6.64E-10  1.40E-09
  5.96E-09  1.39E-09  7.22E-10  3.29E-09  7.36E-09  8.77E-09  3.04E-10  1.83E-09
  2.53E-09  6.03E-09  2.36E-09  6.20E-10  5.42E-10  3.41E-09  1.90E-09  1.62E-09
  1.27E-09  8.02E-09  1.30E-09  3.56E-09  5.87E-09  7.43E-09  1.95E-09  6.80E-09
  3.11E-09  5.03E-09  5.77E-09  5.72E-09  5.86E-09  4.47E-09  7.97E-09  1.35E-08
 -2.9644E+00 -1.7177E+00 -1.7167E+00 -1.7167E+00 -3.8334E-01  6.5832E-02
  1.5296E-01  1.5296E-01  1.6274E-01  2.1999E-01  2.3655E-01  2.3655E-01
  2.3757E-01  5.2733E-01  6.5407E-01  7.3151E-01  8.7235E-01  8.7235E-01
  1.2769E+00  1.3658E+00  1.4233E+00  1.4233E+00  1.4355E+00  1.5925E+00
  1.6558E+00  1.6558E+00  1.6932E+00  1.7615E+00  1.7715E+00  1.7715E+00
  1.8507E+00  1.8507E+00  2.0195E+00  2.3684E+00  2.3722E+00  2.4421E+00
  2.4604E+00  2.5357E+00  2.5906E+00  2.5906E+00
  prteigrs : nnsclo,ikpt=   30   16 max resid (incl. the buffer)=  1.34846E-08
 Non-SCF case, kpt   17 (  0.50000  0.53571  0.03571), residuals and eigenvalues=
  9.17E-10  4.13E-09  5.69E-09  7.46E-09  1.95E-09  3.08E-09  7.38E-10  1.55E-09
  1.48E-09  2.38E-09  9.17E-10  1.19E-09  3.74E-09  6.75E-09  2.18E-09  3.03E-09
  1.55E-09  6.31E-10  1.21E-09  1.86E-09  6.14E-09  7.05E-09  6.02E-09  5.71E-10
  1.39E-09  1.59E-09  9.69E-10  1.65E-09  1.57E-09  1.32E-09  9.36E-10  8.74E-10
  1.92E-09  6.29E-09  4.83E-09  6.52E-09  5.40E-09  9.41E-09  2.19E-04  1.42E-05
 -2.9644E+00 -1.7177E+00 -1.7167E+00 -1.7166E+00 -3.8314E-01  6.6287E-02
[...]
                       0.000000  0.000000  0.000000  0.000000
                       1.000000  1.000000  1.000000  1.000000  1.000000  1.000000
                       1.000000  1.000000  1.000000  1.000000  1.000000  0.999994
                       0.999875  0.000000  0.000000  0.000000  0.000000  0.000000
                       0.000000  0.000000  0.000000  0.000000  0.000000  0.000000
                       0.000000  0.000000  0.000000  0.000000  0.000000  0.000000
                       0.000000  0.000000  0.000000  0.000000  0.000000  0.000000
                       0.000000  0.000000  0.000000  0.000000
                       1.000000  1.000000  1.000000  1.000000  1.000000  1.000000
                       1.000000  1.000000  1.000000  1.000000  1.000000  1.000000
                       0.999989  0.000000  0.000000  0.000000  0.000000  0.000000
                       0.000000  0.000000  0.000000  0.000000  0.000000  0.000000
                       0.000000  0.000000  0.000000  0.000000  0.000000  0.000000
                       0.000000  0.000000  0.000000  0.000000  0.000000  0.000000
                       0.000000  0.000000  0.000000  0.000000
                       1.000000  1.000000  1.000000  1.000000  1.000000  1.000000
                       1.000000  1.000000  1.000000  1.000000  1.000000  1.000000
                       0.999995  0.000000  0.000000  0.000000  0.000000  0.000000
                       0.000000  0.000000  0.000000  0.000000  0.000000  0.000000
                       0.000000  0.000000  0.000000  0.000000  0.000000  0.000000
                       0.000000  0.000000  0.000000  0.000000  0.000000  0.000000
                       0.000000  0.000000  0.000000  0.000000
                       1.000000  1.000000  1.000000  1.000000  1.000000  1.000000
                       1.000000  1.000000  1.000000  1.000000  1.000000  1.000000
                       1.000000  0.000000  0.000000  0.000000  0.000000  0.000000
                       0.000000  0.000000  0.000000  0.000000  0.000000  0.000000
                       0.000000  0.000000  0.000000  0.000000  0.000000  0.000000
                       0.000000  0.000000  0.000000  0.000000  0.000000  0.000000
                       0.000000  0.000000  0.000000  0.000000
                       1.000000  1.000000  1.000000  1.000000  1.000000  1.000000
                       1.000000  1.000000  1.000000  1.000000  1.000000  1.000000
                       1.000000  0.000000  0.000000  0.000000  0.000000  0.000000
                       0.000000  0.000000  0.000000  0.000000  0.000000  0.000000
                       0.000000  0.000000  0.000000  0.000000  0.000000  0.000000
                       0.000000  0.000000  0.000000  0.000000  0.000000  0.000000
                       0.000000  0.000000  0.000000  0.000000
                       1.000000  1.000000  1.000000  1.000000  1.000000  1.000000
                       1.000000  1.000000  1.000000  1.000000  1.000000  1.000000
                       1.000000  0.000000  0.000000  0.000000  0.000000  0.000000
                       0.000000  0.000000  0.000000  0.000000  0.000000  0.000000
                       0.000000  0.000000  0.000000  0.000000  0.000000  0.000000
                       0.000000  0.000000  0.000000  0.000000  0.000000  0.000000
                       0.000000  0.000000  0.000000  0.000000
                       1.000000  1.000000  1.000000  1.000000  1.000000  1.000000
                       1.000000  1.000000  0.996717  0.995909  0.995909  0.000526
                       0.000526  0.000000  0.000000  0.000000  0.000000  0.000000
                       0.000000  0.000000  0.000000  0.000000  0.000000  0.000000
                       0.000000  0.000000  0.000000  0.000000  0.000000  0.000000
                       0.000000  0.000000  0.000000  0.000000  0.000000  0.000000
                       0.000000  0.000000  0.000000  0.000000
                       1.000000  1.000000  1.000000  1.000000  1.000000  1.000000
                       1.000000  1.000000  0.710374  0.611318  0.016901  0.000000
                       0.000000  0.000000  0.000000  0.000000  0.000000  0.000000
                       0.000000  0.000000  0.000000  0.000000  0.000000  0.000000
                       0.000000  0.000000  0.000000  0.000000  0.000000  0.000000
                       0.000000  0.000000  0.000000  0.000000  0.000000  0.000000
                       0.000000  0.000000  0.000000  0.000000
                       1.000000  1.000000  1.000000  1.000000  1.000000  1.000000
                       1.000000  1.000000  0.999995  0.299586  0.266085  0.000024
                       0.000000  0.000000  0.000000  0.000000  0.000000  0.000000
                       0.000000  0.000000  0.000000  0.000000  0.000000  0.000000
                       0.000000  0.000000  0.000000  0.000000  0.000000  0.000000
                       0.000000  0.000000  0.000000  0.000000  0.000000  0.000000
                       0.000000  0.000000  0.000000  0.000000
                       1.000000  1.000000  1.000000  1.000000  1.000000  1.000000
                       1.000000  1.000000  0.072855  0.072855  0.048275  0.000000
                       0.000000  0.000000  0.000000  0.000000  0.000000  0.000000
                       0.000000  0.000000  0.000000  0.000000  0.000000  0.000000
                       0.000000  0.000000  0.000000  0.000000  0.000000  0.000000
                       0.000000  0.000000  0.000000  0.000000  0.000000  0.000000
                       0.000000  0.000000  0.000000  0.000000
                       1.000000  1.000000  1.000000  1.000000  1.000000  1.000000
                       1.000000  1.000000  0.276162  0.004510  0.000545  0.000000
                       0.000000  0.000000  0.000000  0.000000  0.000000  0.000000
                       0.000000  0.000000  0.000000  0.000000  0.000000  0.000000
                       0.000000  0.000000  0.000000  0.000000  0.000000  0.000000
                       0.000000  0.000000  0.000000  0.000000  0.000000  0.000000
                       0.000000  0.000000  0.000000  0.000000
                       1.000000  1.000000  1.000000  1.000000  1.000000  1.000000
                       1.000000  1.000000  0.453043  0.012915  0.002009  0.000000
                       0.000000  0.000000  0.000000  0.000000  0.000000  0.000000
                       0.000000  0.000000  0.000000  0.000000  0.000000  0.000000
                       0.000000  0.000000  0.000000  0.000000  0.000000  0.000000
                       0.000000  0.000000  0.000000  0.000000  0.000000  0.000000
                       0.000000  0.000000  0.000000  0.000000
                       1.000000  1.000000  1.000000  1.000000  1.000000  1.000000
                       1.000000  1.000000  0.960712  0.004238  0.000715  0.000000
                       0.000000  0.000000  0.000000  0.000000  0.000000  0.000000
                       0.000000  0.000000  0.000000  0.000000  0.000000  0.000000
                       0.000000  0.000000  0.000000  0.000000  0.000000  0.000000
                       0.000000  0.000000  0.000000  0.000000  0.000000  0.000000
                       0.000000  0.000000  0.000000  0.000000
                       1.000000  1.000000  1.000000  1.000000  1.000000  1.000000
                       1.000000  1.000000  1.000000  0.001304  0.000251  0.000000
                       0.000000  0.000000  0.000000  0.000000  0.000000  0.000000
                       0.000000  0.000000  0.000000  0.000000  0.000000  0.000000
                       0.000000  0.000000  0.000000  0.000000  0.000000  0.000000
                       0.000000  0.000000  0.000000  0.000000  0.000000  0.000000
                       0.000000  0.000000  0.000000  0.000000
                       1.000000  1.000000  1.000000  1.000000  1.000000  1.000000
                       1.000000  1.000000  1.000000  0.000046  0.000022  0.000000
                       0.000000  0.000000  0.000000  0.000000  0.000000  0.000000
                       0.000000  0.000000  0.000000  0.000000  0.000000  0.000000
                       0.000000  0.000000  0.000000  0.000000  0.000000  0.000000
                       0.000000  0.000000  0.000000  0.000000  0.000000  0.000000
                       0.000000  0.000000  0.000000  0.000000
                       1.000000  1.000000  1.000000  1.000000  1.000000  1.000000
                       1.000000  1.000000  0.995170  0.014658  0.000027  0.000000
                       0.000000  0.000000  0.000000  0.000000  0.000000  0.000000
                       0.000000  0.000000  0.000000  0.000000  0.000000  0.000000
                       0.000000  0.000000  0.000000  0.000000  0.000000  0.000000
                       0.000000  0.000000  0.000000  0.000000  0.000000  0.000000
                       0.000000  0.000000  0.000000  0.000000
           occopt           7
        paral_kgb1          1
        paral_kgb2          0
        paral_kgb3          0
        paral_kgb4          1
        pawecutdg      4.50000000E+01 Hartree
        pawfatbnd1          0
        pawfatbnd2          0
        pawfatbnd3          2
        pawfatbnd4          0
         pawmixdg1          1
         pawmixdg2          0
         pawmixdg3          0
         pawmixdg4          1
        pawprtdos1          0
        pawprtdos2          0
        pawprtdos3          0
        pawprtdos4          2
           prtdos1          0
           prtdos2          0
           prtdos3          0
           prtdos4          3
            rprim      2.1584523900E+00  0.0000000000E+00  2.1584523900E+00
                       2.1584523900E+00  2.1584523900E+00  0.0000000000E+00
                       0.0000000000E+00  2.1584523900E+00  2.1584523900E+00
           shiftk      5.00000000E-01  5.00000000E-01  5.00000000E-01
          spgroup         225
           spinat      0.0000000000E+00  0.0000000000E+00  1.0000000000E+00
                       0.0000000000E+00  0.0000000000E+00  0.0000000000E+00
           strten1     4.0768805742E-04  4.0768805742E-04  4.0768805742E-04
                       0.0000000000E+00  0.0000000000E+00  0.0000000000E+00
           symrel      1  0  0   0  1  0   0  0  1      -1  0  0   0 -1  0   0  0 -1
                       0 -1  1   0 -1  0   1 -1  0       0  1 -1   0  1  0  -1  1  0
                      -1  0  0  -1  0  1  -1  1  0       1  0  0   1  0 -1   1 -1  0
                       0  1 -1   1  0 -1   0  0 -1       0 -1  1  -1  0  1   0  0  1
                      -1  0  0  -1  1  0  -1  0  1       1  0  0   1 -1  0   1  0 -1
                       0 -1  1   1 -1  0   0 -1  0       0  1 -1  -1  1  0   0  1  0
                       1  0  0   0  0  1   0  1  0      -1  0  0   0  0 -1   0 -1  0
                       0  1 -1   0  0 -1   1  0 -1       0 -1  1   0  0  1  -1  0  1
                      -1  0  1  -1  1  0  -1  0  0       1  0 -1   1 -1  0   1  0  0
                       0 -1  0   1 -1  0   0 -1  1       0  1  0  -1  1  0   0  1 -1
                       1  0 -1   0  0 -1   0  1 -1      -1  0  1   0  0  1   0 -1  1
                       0  1  0   0  0  1   1  0  0       0 -1  0   0  0 -1  -1  0  0
                       1  0 -1   0  1 -1   0  0 -1      -1  0  1   0 -1  1   0  0  1
                       0 -1  0   0 -1  1   1 -1  0       0  1  0   0  1 -1  -1  1  0
                      -1  0  1  -1  0  0  -1  1  0       1  0 -1   1  0  0   1 -1  0
                       0  1  0   1  0  0   0  0  1       0 -1  0  -1  0  0   0  0 -1
                       0  0 -1   0  1 -1   1  0 -1       0  0  1   0 -1  1  -1  0  1
                       1 -1  0   0 -1  1   0 -1  0      -1  1  0   0  1 -1   0  1  0
                       0  0  1   1  0  0   0  1  0       0  0 -1  -1  0  0   0 -1  0
                      -1  1  0  -1  0  0  -1  0  1       1 -1  0   1  0  0   1  0 -1
                       0  0  1   0  1  0   1  0  0       0  0 -1   0 -1  0  -1  0  0
                       1 -1  0   0 -1  0   0 -1  1      -1  1  0   0  1  0   0  1 -1
                       0  0 -1   1  0 -1   0  1 -1       0  0  1  -1  0  1   0 -1  1
                      -1  1  0  -1  0  1  -1  0  0       1 -1  0   1  0 -1   1  0  0
           tolvrs1     1.00000000E-03
           tolvrs2     0.00000000E+00
           tolvrs3     0.00000000E+00
           tolvrs4     0.00000000E+00
           tolwfr1     0.00000000E+00
           tolwfr2     1.00000000E-08
           tolwfr3     1.00000000E-08
           tolwfr4     1.00000000E-08
            typat      1  2
           useylm           1
         wfoptalg1        114
         wfoptalg2         10
         wfoptalg3         10
         wfoptalg4        114
              wtk1       0.03125    0.09375    0.09375    0.03125    0.09375    0.09375
                         0.18750    0.09375    0.09375    0.18750
              wtk2       1.00000    1.00000    1.00000    1.00000    1.00000    1.00000
                         1.00000    1.00000    1.00000    1.00000    1.00000    1.00000
                         1.00000    1.00000    1.00000    1.00000    1.00000    1.00000
                         1.00000    1.00000    1.00000    1.00000    1.00000    1.00000
                         1.00000    1.00000    1.00000    1.00000    1.00000    1.00000
                         1.00000    1.00000    1.00000    1.00000    1.00000    1.00000
                         1.00000    1.00000    1.00000    1.00000    1.00000    1.00000
                         1.00000    1.00000    1.00000    1.00000    1.00000    1.00000
                         1.00000    1.00000
              wtk3       1.00000    1.00000    1.00000    1.00000    1.00000    1.00000
                         1.00000    1.00000    1.00000    1.00000    1.00000    1.00000
                         1.00000    1.00000    1.00000    1.00000    1.00000    1.00000
                         1.00000    1.00000    1.00000    1.00000    1.00000    1.00000
                         1.00000    1.00000    1.00000    1.00000    1.00000    1.00000
                         1.00000    1.00000    1.00000    1.00000    1.00000    1.00000
                         1.00000    1.00000    1.00000    1.00000    1.00000    1.00000
                         1.00000    1.00000    1.00000    1.00000    1.00000    1.00000
                         1.00000    1.00000
              wtk4       0.03125    0.09375    0.09375    0.03125    0.09375    0.09375
                         0.18750    0.09375    0.09375    0.18750
                       outvars : Printing only first  50 k-points.
           xangst      0.0000000000E+00  0.0000000000E+00  0.0000000000E+00
                       0.0000000000E+00  0.0000000000E+00  2.1584523900E+00
            xcart      0.0000000000E+00  0.0000000000E+00  0.0000000000E+00
                       0.0000000000E+00  0.0000000000E+00  4.0788838880E+00
             xred      0.0000000000E+00  0.0000000000E+00  0.0000000000E+00
                       5.0000000000E-01 -5.0000000000E-01  5.0000000000E-01
            znucl       26.00000    8.00000

================================================================================


- Timing analysis has been suppressed with timopt=0



================================================================================

 Suggested references for the acknowledgment of ABINIT usage.

 The users of ABINIT have little formal obligations with respect to the ABINIT group
 (those specified in the GNU General Public License, http://www.gnu.org/copyleft/gpl.txt).
 However, it is common practice in the scientific literature,
 to acknowledge the efforts of people that have made the research possible.
 In this spirit, please find below suggested citations of work written by ABINIT developers,
 corresponding to implementations inside of ABINIT that you have used in the present run.
 Note also that it will be of great value to readers of publications presenting these results,
 to read papers enabling them to understand the theoretical formalism and details
 of the ABINIT implementation.
 For information on why they are suggested, see also http://www.abinit.org/about/?text=acknowledgments.
-
- [1] Implementation of the Projector Augmented-Wave Method in the ABINIT code.
- M. Torrent, F. Jollet, F. Bottin, G. Zerah, and X. Gonze Comput. Mat. Science 42, 337, (2008).
- Comment : PAW calculations. Strong suggestion to cite this paper.
-
- [2] Recent developments in the ABINIT software package.
- Computer Phys. Comm. 205, 106 (2016).
- X.Gonze, F.Jollet, F.Abreu Araujo, D.Adams, B.Amadon, T.Applencourt,
- C.Audouze, J.-M.Beuken, J.Bieder, A.Bokhanchuk, E.Bousquet, F.Bruneval
- D.Caliste, M.Cote, F.Dahm, F.Da Pieve, M.Delaveau, M.Di Gennaro,
- B.Dorado, C.Espejo, G.Geneste, L.Genovese, A.Gerossier, M.Giantomassi,
- Y.Gillet, D.R.Hamann, L.He, G.Jomard, J.Laflamme Janssen, S.Le Roux,
- A.Levitt, A.Lherbier, F.Liu, I.Lukacevic, A.Martin, C.Martins,
- M.J.T.Oliveira, S.Ponce, Y.Pouillon, T.Rangel, G.-M.Rignanese,
- A.H.Romero, B.Rousseau, O.Rubel, A.A.Shukri, M.Stankovski, M.Torrent,
- M.J.Van Setten, B.Van Troeye, M.J.Verstraete, D.Waroquier, J.Wiktor,
- B.Xue, A.Zhou, J.W.Zwanziger.
- Comment : the fourth generic paper describing the ABINIT project.
- Note that a version of this paper, that is not formatted for Computer Phys. Comm. 
- is available at http://www.abinit.org/about/ABINIT16.pdf .
- The licence allows the authors to put it on the Web.
-
- [3] ABINIT : First-principles approach of materials and nanosystem properties.
- Computer Phys. Comm. 180, 2582-2615 (2009).
- X. Gonze, B. Amadon, P.-M. Anglade, J.-M. Beuken, F. Bottin, P. Boulanger, F. Bruneval,
- D. Caliste, R. Caracas, M. Cote, T. Deutsch, L. Genovese, Ph. Ghosez, M. Giantomassi
- S. Goedecker, D.R. Hamann, P. Hermet, F. Jollet, G. Jomard, S. Leroux, M. Mancini, S. Mazevet,
- M.J.T. Oliveira, G. Onida, Y. Pouillon, T. Rangel, G.-M. Rignanese, D. Sangalli, R. Shaltaf,
- M. Torrent, M.J. Verstraete, G. Zerah, J.W. Zwanziger
- Comment : the third generic paper describing the ABINIT project.
- Note that a version of this paper, that is not formatted for Computer Phys. Comm. 
- is available at http://www.abinit.org/about/ABINIT_CPC_v10.pdf .
- The licence allows the authors to put it on the Web.
-
- [4] A brief introduction to the ABINIT software package.
- Z. Kristallogr. 220, 558-562 (2005).
- X. Gonze, G.-M. Rignanese, M. Verstraete, J.-M. Beuken, Y. Pouillon, R. Caracas, F. Jollet,
- M. Torrent, G. Zerah, M. Mikami, Ph. Ghosez, M. Veithen, J.-Y. Raty, V. Olevano, F. Bruneval,
- L. Reining, R. Godby, G. Onida, D.R. Hamann, and D.C. Allan.
- Comment : the second generic paper describing the ABINIT project. Note that this paper
- should be cited especially if you are using the GW part of ABINIT, as several authors
- of this part are not in the list of authors of the first or third paper.
- The .pdf of the latter paper is available at http://www.abinit.org/about/zfk_0505-06_558-562.pdf.
- Note that it should not redistributed (Copyright by Oldenburg Wissenshaftverlag,
- the licence allows the authors to put it on the Web).
-
- And optionally:
-
- [5] First-principles computation of material properties : the ABINIT software project. 
- X. Gonze, J.-M. Beuken, R. Caracas, F. Detraux, M. Fuchs, G.-M. Rignanese, L. Sindic,
- M. Verstraete, G. Zerah, F. Jollet, M. Torrent, A. Roy, M. Mikami, Ph. Ghosez, J.-Y. Raty, D.C. Allan.
- Computational Materials Science 25, 478-492 (2002). http://dx.doi.org/10.1016/S0927-0256(02)00325-7
- Comment : the original paper describing the ABINIT project.
-
- Proc.   0 individual time (sec): cpu=         39.1  wall=         39.9

================================================================================

 Calculation completed.
.Delivered   0 WARNINGs and   4 COMMENTs to log file.
+Overall time at end (sec) : cpu=        637.1  wall=        638.7
