
     Program PROJWFC v.6.1 (svn rev. 13369) starts on 15Aug2017 at 18:26:47 

     This program is part of the open-source Quantum ESPRESSO suite
     for quantum simulation of materials; please cite
         "P. Giannozzi et al., J. Phys.:Condens. Matter 21 395502 (2009);
          URL http://www.quantum-espresso.org", 
     in publications or presentations arising from this work. More details at
     http://www.quantum-espresso.org/quote

     Parallel version (MPI), running on     8 processors
     R & G space division:  proc/nbgrp/npool/nimage =       8

     Reading data from directory:
     ./outdir/pwscf.save

   Info: using nr1, nr2, nr3 values from input

   Info: using nr1, nr2, nr3 values from input

     IMPORTANT: XC functional enforced from input :
     Exchange-correlation      =  SLA  PZ   NOGX NOGC ( 1  1  0  0 0 0)
     Any further DFT definition will be discarded
     Please, verify this is what you really want

               file Fe.pz-spn-kjpaw_psl.0.2.1.UPF: wavefunction(s)  3D renormalized
               file O.pz-n-kjpaw_psl.0.1.UPF: wavefunction(s)  2P renormalized

     Parallelization info
     --------------------
     sticks:   dense  smooth     PW     G-vecs:    dense   smooth      PW
     Min          33      33     11                  371      371      70
     Max          35      35     12                  372      372      71
     Sum         271     271     91                 2975     2975     561


     Check: negative/imaginary core charge=   -0.007909    0.000000

     negative rho (up, down):  1.067E-04 0.000E+00

     Gaussian broadening (read from file): ngauss,degauss=   0    0.020000


     Calling projwave .... 

     Atomic states used for projection
     (read from pseudopotential files):

     state #   1: atom   1 (Fe ), wfc  1 (l=0 m= 1)
     state #   2: atom   1 (Fe ), wfc  2 (l=0 m= 1)
     state #   3: atom   1 (Fe ), wfc  3 (l=1 m= 1)
     state #   4: atom   1 (Fe ), wfc  3 (l=1 m= 2)
     state #   5: atom   1 (Fe ), wfc  3 (l=1 m= 3)
     state #   6: atom   1 (Fe ), wfc  4 (l=1 m= 1)
     state #   7: atom   1 (Fe ), wfc  4 (l=1 m= 2)
     state #   8: atom   1 (Fe ), wfc  4 (l=1 m= 3)
     state #   9: atom   1 (Fe ), wfc  5 (l=2 m= 1)
     state #  10: atom   1 (Fe ), wfc  5 (l=2 m= 2)
     state #  11: atom   1 (Fe ), wfc  5 (l=2 m= 3)
     state #  12: atom   1 (Fe ), wfc  5 (l=2 m= 4)
     state #  13: atom   1 (Fe ), wfc  5 (l=2 m= 5)
     state #  14: atom   2 (O  ), wfc  1 (l=0 m= 1)
     state #  15: atom   2 (O  ), wfc  2 (l=1 m= 1)
     state #  16: atom   2 (O  ), wfc  2 (l=1 m= 2)
     state #  17: atom   2 (O  ), wfc  2 (l=1 m= 3)

 k =   0.0000000000  0.0000000000  0.0000000000
==== e(   1) =   -73.28644 eV ==== 
     psi = 0.973*[#   1]+0.027*[#   2]+
    |psi|^2 = 1.000
==== e(   2) =   -39.03574 eV ==== 
     psi = 0.511*[#   5]+0.465*[#   4]+0.011*[#   8]+0.010*[#   7]+0.001*[#  17]+
          +0.001*[#  16]+
    |psi|^2 = 0.999
==== e(   3) =   -39.03574 eV ==== 
     psi = 0.510*[#   4]+0.464*[#   5]+0.011*[#   7]+0.010*[#   8]+0.002*[#   3]+
          +0.001*[#  16]+0.001*[#  17]+
    |psi|^2 = 0.999
==== e(   4) =   -39.03574 eV ==== 
     psi = 0.973*[#   3]+0.020*[#   6]+0.003*[#  15]+0.001*[#   4]+0.001*[#   5]+
    |psi|^2 = 0.999
==== e(   5) =    -6.83603 eV ==== 
     psi = 0.645*[#  14]+0.344*[#   2]+0.011*[#   1]+
    |psi|^2 = 1.000
==== e(   6) =     9.95882 eV ==== 
     psi = 0.949*[#  15]+0.035*[#  16]+0.011*[#   6]+0.001*[#   3]+
    |psi|^2 = 0.997
==== e(   7) =     9.95882 eV ==== 
     psi = 0.527*[#  16]+0.441*[#  17]+0.017*[#  15]+0.006*[#   7]+0.005*[#   8]+
    |psi|^2 = 0.997
==== e(   8) =     9.95882 eV ==== 
     psi = 0.543*[#  17]+0.423*[#  16]+0.018*[#  15]+0.006*[#   8]+0.005*[#   7]+
    |psi|^2 = 0.997
==== e(   9) =    11.83402 eV ==== 
     psi = 0.995*[#  13]+
    |psi|^2 = 0.995
==== e(  10) =    11.83402 eV ==== 
     psi = 0.564*[#  10]+0.431*[#  11]+
    |psi|^2 = 0.995
==== e(  11) =    11.83402 eV ==== 
     psi = 0.564*[#  11]+0.431*[#  10]+
    |psi|^2 = 0.995
==== e(  12) =    12.24207 eV ==== 
     psi = 0.997*[#   9]+
    |psi|^2 = 0.997
==== e(  13) =    12.24207 eV ==== 
     psi = 0.997*[#  12]+
    |psi|^2 = 0.997
==== e(  14) =    14.75186 eV ==== 
     psi = 0.627*[#   2]+0.353*[#  14]+0.016*[#   1]+
    |psi|^2 = 0.996
==== e(  15) =    29.54296 eV ==== 
     psi = 
    |psi|^2 = 0.000

 k =   0.0154431636  0.0000000000  0.0000000000
==== e(   1) =   -73.29475 eV ==== 
     psi = 0.965*[#   1]+0.022*[#   2]+0.013*[#   7]+
    |psi|^2 = 1.000
==== e(   2) =   -39.09429 eV ==== 
     psi = 0.978*[#   4]+0.017*[#   7]+0.002*[#  16]+0.001*[#   2]+
    |psi|^2 = 0.999
==== e(   3) =   -39.05092 eV ==== 
     psi = 0.976*[#   5]+0.020*[#   8]+0.003*[#  17]+
    |psi|^2 = 0.999
==== e(   4) =   -39.05092 eV ==== 
     psi = 0.976*[#   3]+0.020*[#   6]+0.003*[#  15]+
    |psi|^2 = 0.999
==== e(   5) =    -6.82527 eV ==== 
     psi = 0.641*[#  14]+0.324*[#   2]+0.023*[#   7]+0.012*[#   1]+
    |psi|^2 = 1.000
==== e(   6) =     9.75529 eV ==== 
     psi = 0.932*[#  16]+0.032*[#  12]+0.011*[#   2]+0.011*[#   9]+0.005*[#   7]+
          +0.005*[#  14]+0.001*[#   4]+
    |psi|^2 = 0.997
==== e(   7) =     9.91803 eV ==== 
     psi = 0.971*[#  17]+0.013*[#  13]+0.012*[#   8]+0.001*[#   5]+
    |psi|^2 = 0.997
==== e(   8) =     9.91803 eV ==== 
     psi = 0.971*[#  15]+0.013*[#  10]+0.012*[#   6]+0.001*[#   3]+
    |psi|^2 = 0.997
==== e(   9) =    11.82118 eV ==== 
     psi = 0.995*[#  11]+
    |psi|^2 = 0.995
==== e(  10) =    11.87548 eV ==== 
     psi = 0.982*[#  13]+0.013*[#  17]+
    |psi|^2 = 0.995
==== e(  11) =    11.87548 eV ==== 
     psi = 0.982*[#  10]+0.013*[#  15]+
    |psi|^2 = 0.995
==== e(  12) =    12.24685 eV ==== 
     psi = 0.748*[#   9]+0.249*[#  12]+
    |psi|^2 = 0.997
==== e(  13) =    12.35637 eV ==== 
     psi = 0.716*[#  12]+0.239*[#   9]+0.040*[#  16]+0.002*[#   2]+0.001*[#  14]+
    |psi|^2 = 0.997
==== e(  14) =    14.83334 eV ==== 
     psi = 0.591*[#   2]+0.349*[#  14]+0.023*[#   7]+0.016*[#   1]+0.016*[#  16]+
    |psi|^2 = 0.996
==== e(  15) =    29.26166 eV ==== 
     psi = 0.001*[#  11]+
    |psi|^2 = 0.001

 k =   0.0308863272  0.0000000000  0.0000000000
==== e(   1) =   -73.29783 eV ==== 
     psi = 0.946*[#   1]+0.043*[#   7]+0.011*[#   2]+
    |psi|^2 = 1.000
==== e(   2) =   -39.12177 eV ==== 
     psi = 0.983*[#   4]+0.010*[#   7]+0.004*[#   2]+0.002*[#  16]+
    |psi|^2 = 0.999
==== e(   3) =   -39.05627 eV ==== 
     psi = 0.977*[#   5]+0.019*[#   8]+0.003*[#  17]+
    |psi|^2 = 0.999
==== e(   4) =   -39.05627 eV ==== 
     psi = 0.977*[#   3]+0.019*[#   6]+0.003*[#  15]+
    |psi|^2 = 0.999
==== e(   5) =    -6.78114 eV ==== 
     psi = 0.634*[#  14]+0.275*[#   2]+0.078*[#   7]+0.013*[#   1]+
    |psi|^2 = 1.000
==== e(   6) =     9.30716 eV ==== 
     psi = 0.842*[#  16]+0.078*[#  12]+0.032*[#   2]+0.026*[#   9]+0.017*[#  14]+
          +0.001*[#   1]+
    |psi|^2 = 0.997
==== e(   7) =     9.82149 eV ==== 
     psi = 0.940*[#  17]+0.041*[#  13]+0.015*[#   8]+0.001*[#   5]+
    |psi|^2 = 0.997
==== e(   8) =     9.82149 eV ==== 
     psi = 0.940*[#  15]+0.041*[#  10]+0.015*[#   6]+0.001*[#   3]+
    |psi|^2 = 0.997
==== e(   9) =    11.78333 eV ==== 
     psi = 0.994*[#  11]+
    |psi|^2 = 0.994
==== e(  10) =    11.98813 eV ==== 
     psi = 0.953*[#  13]+0.043*[#  17]+
    |psi|^2 = 0.996
==== e(  11) =    11.98813 eV ==== 
     psi = 0.953*[#  10]+0.043*[#  15]+
    |psi|^2 = 0.996
==== e(  12) =    12.26102 eV ==== 
     psi = 0.748*[#   9]+0.249*[#  12]+
    |psi|^2 = 0.997
==== e(  13) =    12.58890 eV ==== 
     psi = 0.664*[#  12]+0.221*[#   9]+0.084*[#  16]+0.016*[#   2]+0.011*[#  14]+
    |psi|^2 = 0.997
==== e(  14) =    15.13462 eV ==== 
     psi = 0.501*[#   2]+0.331*[#  14]+0.076*[#   7]+0.062*[#  16]+0.017*[#   1]+
          +0.006*[#  12]+0.002*[#   9]+
    |psi|^2 = 0.996
==== e(  15) =    28.72266 eV ==== 
     psi = 0.003*[#  11]+
    |psi|^2 = 0.003

 k =   0.0463294907  0.0000000000  0.0000000000
==== e(   1) =   -73.30073 eV ==== 
     psi = 0.926*[#   1]+0.070*[#   7]+0.003*[#   2]+
    |psi|^2 = 1.000
==== e(   2) =   -39.13878 eV ==== 
     psi = 0.988*[#   4]+0.006*[#   2]+0.004*[#   7]+0.001*[#  16]+
    |psi|^2 = 0.999
==== e(   3) =   -39.06716 eV ==== 
     psi = 0.979*[#   5]+0.017*[#   8]+0.003*[#  17]+
    |psi|^2 = 0.999
==== e(   4) =   -39.06716 eV ==== 
     psi = 0.979*[#   3]+0.017*[#   6]+0.003*[#  15]+
    |psi|^2 = 0.999
==== e(   5) =    -6.71114 eV ==== 
     psi = 0.628*[#  14]+0.219*[#   2]+0.136*[#   7]+0.014*[#   1]+
    |psi|^2 = 1.000
==== e(   6) =     8.79032 eV ==== 
     psi = 0.774*[#  16]+0.108*[#  12]+0.046*[#   2]+0.036*[#   9]+0.028*[#  14]+
          +0.003*[#   1]+0.002*[#   7]+
    |psi|^2 = 0.997
==== e(   7) =     9.68051 eV ==== 
     psi = 0.907*[#  17]+0.069*[#  13]+0.019*[#   8]+0.001*[#  15]+0.001*[#   5]+
    |psi|^2 = 0.997
==== e(   8) =     9.68051 eV ==== 
     psi = 0.907*[#  15]+0.069*[#  10]+0.019*[#   6]+0.001*[#  17]+0.001*[#   3]+
    |psi|^2 = 0.997
==== e(   9) =    11.72243 eV ==== 
     psi = 0.994*[#  11]+
    |psi|^2 = 0.994
==== e(  10) =    12.14547 eV ==== 
     psi = 0.924*[#  13]+0.072*[#  17]+
    |psi|^2 = 0.997
==== e(  11) =    12.14547 eV ==== 
     psi = 0.924*[#  10]+0.072*[#  15]+
    |psi|^2 = 0.997
==== e(  12) =    12.28397 eV ==== 
     psi = 0.748*[#   9]+0.249*[#  12]+
    |psi|^2 = 0.997
==== e(  13) =    12.81264 eV ==== 
     psi = 0.621*[#  12]+0.207*[#   9]+0.093*[#  16]+0.040*[#   2]+0.032*[#  14]+
          +0.003*[#   7]+0.001*[#   1]+
    |psi|^2 = 0.997
==== e(  14) =    15.61299 eV ==== 
     psi = 0.399*[#   2]+0.301*[#  14]+0.130*[#   7]+0.124*[#  16]+0.019*[#  12]+
          +0.017*[#   1]+0.006*[#   9]+
    |psi|^2 = 0.996
==== e(  15) =    28.16628 eV ==== 
     psi = 0.005*[#  11]+
    |psi|^2 = 0.005

 k =   0.0617726543  0.0000000000  0.0000000000
==== e(   1) =   -73.30968 eV ==== 
     psi = 0.912*[#   1]+0.087*[#   7]+
    |psi|^2 = 1.000
==== e(   2) =   -39.14574 eV ==== 
     psi = 0.991*[#   4]+0.006*[#   2]+
    |psi|^2 = 0.998
==== e(   3) =   -39.11532 eV ==== 
     psi = 0.981*[#   5]+0.014*[#   8]+0.003*[#  17]+
    |psi|^2 = 0.999
==== e(   4) =   -39.11532 eV ==== 
     psi = 0.981*[#   3]+0.014*[#   6]+0.003*[#  15]+
    |psi|^2 = 0.999
==== e(   5) =    -6.62351 eV ==== 
     psi = 0.629*[#  14]+0.182*[#   7]+0.171*[#   2]+0.015*[#   1]+0.001*[#   4]+
    |psi|^2 = 1.000
==== e(   6) =     8.28749 eV ==== 
     psi = 0.726*[#  16]+0.126*[#  12]+0.052*[#   2]+0.042*[#   9]+0.036*[#  14]+
          +0.012*[#   7]+0.004*[#   1]+
    |psi|^2 = 0.997
==== e(   7) =     9.53276 eV ==== 
     psi = 0.886*[#  17]+0.087*[#  13]+0.023*[#   8]+0.001*[#   5]+
    |psi|^2 = 0.998
==== e(   8) =     9.53276 eV ==== 
     psi = 0.886*[#  15]+0.087*[#  10]+0.023*[#   6]+0.001*[#   3]+
    |psi|^2 = 0.998
==== e(   9) =    11.64153 eV ==== 
     psi = 0.993*[#  11]+
    |psi|^2 = 0.993
==== e(  10) =    12.31464 eV ==== 
     psi = 0.748*[#   9]+0.249*[#  12]+
    |psi|^2 = 0.998
==== e(  11) =    12.32063 eV ==== 
     psi = 0.905*[#  13]+0.092*[#  17]+
    |psi|^2 = 0.997
==== e(  12) =    12.32063 eV ==== 
     psi = 0.905*[#  10]+0.092*[#  15]+
    |psi|^2 = 0.997
==== e(  13) =    12.99439 eV ==== 
     psi = 0.588*[#  12]+0.196*[#   9]+0.084*[#  16]+0.059*[#   2]+0.056*[#  14]+
          +0.011*[#   7]+0.003*[#   1]+
    |psi|^2 = 0.997
==== e(  14) =    16.19523 eV ==== 
     psi = 0.317*[#   2]+0.266*[#  14]+0.183*[#  16]+0.169*[#   7]+0.033*[#  12]+
          +0.016*[#   1]+0.011*[#   9]+0.001*[#   4]+
    |psi|^2 = 0.996
==== e(  15) =    27.65100 eV ==== 
     psi = 0.006*[#  11]+
    |psi|^2 = 0.006

 k =   0.0772158179  0.0000000000  0.0000000000
==== e(   1) =   -73.30598 eV ==== 
     psi = 0.905*[#   1]+0.093*[#   7]+
    |psi|^2 = 1.000
==== e(   2) =   -39.13665 eV ==== 
     psi = 0.992*[#   4]+0.006*[#   2]+
    |psi|^2 = 0.998
==== e(   3) =   -39.10734 eV ==== 
     psi = 0.983*[#   5]+0.011*[#   8]+0.003*[#  17]+
    |psi|^2 = 0.999
==== e(   4) =   -39.10734 eV ==== 
     psi = 0.983*[#   3]+0.011*[#   6]+0.003*[#  15]+
    |psi|^2 = 0.999
==== e(   5) =    -6.51502 eV ==== 
     psi = 0.638*[#  14]+0.208*[#   7]+0.134*[#   2]+0.014*[#   1]+0.002*[#   4]+
          +0.002*[#  12]+
    |psi|^2 = 1.000
==== e(   6) =     7.82908 eV ==== 
     psi = 0.692*[#  16]+0.133*[#  12]+0.053*[#   2]+0.044*[#   9]+0.040*[#  14]+
          +0.027*[#   7]+0.006*[#   1]+
    |psi|^2 = 0.997
==== e(   7) =     9.42193 eV ==== 
     psi = 0.867*[#  17]+0.099*[#  13]+0.028*[#   8]+0.002*[#  15]+0.001*[#   5]+
    |psi|^2 = 0.998
==== e(   8) =     9.42193 eV ==== 
     psi = 0.867*[#  15]+0.099*[#  10]+0.028*[#   6]+0.002*[#  17]+0.001*[#   3]+
    |psi|^2 = 0.998
==== e(   9) =    11.54475 eV ==== 
     psi = 0.991*[#  11]+
    |psi|^2 = 0.991
==== e(  10) =    12.35206 eV ==== 
     psi = 0.748*[#   9]+0.249*[#  12]+
    |psi|^2 = 0.998
==== e(  11) =    12.50119 eV ==== 
     psi = 0.893*[#  13]+0.104*[#  17]+
    |psi|^2 = 0.998
==== e(  12) =    12.50119 eV ==== 
     psi = 0.893*[#  10]+0.104*[#  15]+
    |psi|^2 = 0.998
==== e(  13) =    13.13746 eV ==== 
     psi = 0.569*[#  12]+0.190*[#   9]+0.075*[#  14]+0.072*[#  16]+0.066*[#   2]+
          +0.021*[#   7]+0.003*[#   1]+
    |psi|^2 = 0.997
==== e(  14) =    16.88693 eV ==== 
     psi = 0.266*[#   2]+0.232*[#  14]+0.231*[#  16]+0.194*[#   7]+0.043*[#  12]+
          +0.015*[#   1]+0.014*[#   9]+0.002*[#   4]+
    |psi|^2 = 0.996
==== e(  15) =    27.19290 eV ==== 
     psi = 0.008*[#  11]+
    |psi|^2 = 0.008

 k =   0.0926589815  0.0000000000  0.0000000000
==== e(   1) =   -73.30497 eV ==== 
     psi = 0.905*[#   1]+0.092*[#   7]+0.002*[#   2]+
    |psi|^2 = 1.000
==== e(   2) =   -39.13932 eV ==== 
     psi = 0.991*[#   4]+0.005*[#   2]+0.002*[#   7]+
    |psi|^2 = 0.998
==== e(   3) =   -39.10973 eV ==== 
     psi = 0.986*[#   5]+0.009*[#   8]+0.004*[#  17]+
    |psi|^2 = 0.998
==== e(   4) =   -39.10973 eV ==== 
     psi = 0.986*[#   3]+0.009*[#   6]+0.004*[#  15]+
    |psi|^2 = 0.998
==== e(   5) =    -6.39833 eV ==== 
     psi = 0.654*[#  14]+0.218*[#   7]+0.106*[#   2]+0.013*[#   1]+0.004*[#  12]+
          +0.003*[#   4]+0.001*[#   9]+
    |psi|^2 = 1.000
==== e(   6) =     7.43268 eV ==== 
     psi = 0.671*[#  16]+0.134*[#  12]+0.051*[#   2]+0.047*[#   7]+0.045*[#   9]+
          +0.041*[#  14]+0.007*[#   1]+
    |psi|^2 = 0.997
==== e(   7) =     9.30795 eV ==== 
     psi = 0.858*[#  17]+0.100*[#  13]+0.034*[#   8]+0.003*[#  15]+0.002*[#   5]+
    |psi|^2 = 0.998
==== e(   8) =     9.30795 eV ==== 
     psi = 0.858*[#  15]+0.100*[#  10]+0.034*[#   6]+0.003*[#  17]+0.002*[#   3]+
    |psi|^2 = 0.998
==== e(   9) =    11.43669 eV ==== 
     psi = 0.990*[#  11]+
    |psi|^2 = 0.990
==== e(  10) =    12.39449 eV ==== 
     psi = 0.748*[#   9]+0.249*[#  12]+
    |psi|^2 = 0.998
==== e(  11) =    12.66582 eV ==== 
     psi = 0.891*[#  13]+0.107*[#  17]+
    |psi|^2 = 0.998
==== e(  12) =    12.66582 eV ==== 
     psi = 0.891*[#  10]+0.107*[#  15]+
    |psi|^2 = 0.998
==== e(  13) =    13.25054 eV ==== 
     psi = 0.562*[#  12]+0.187*[#   9]+0.088*[#  14]+0.064*[#   2]+0.062*[#  16]+
          +0.030*[#   7]+0.004*[#   1]+
    |psi|^2 = 0.997
==== e(  14) =    17.55009 eV ==== 
     psi = 0.263*[#  16]+0.241*[#   2]+0.211*[#   7]+0.201*[#  14]+0.048*[#  12]+
          +0.016*[#   9]+0.013*[#   1]+0.002*[#   4]+
    |psi|^2 = 0.996
==== e(  15) =    26.79148 eV ==== 
     psi = 0.009*[#  11]+
    |psi|^2 = 0.009

 k =   0.1081021450  0.0000000000  0.0000000000
==== e(   1) =   -73.30359 eV ==== 
     psi = 0.909*[#   1]+0.085*[#   7]+0.004*[#   2]+
    |psi|^2 = 1.000
==== e(   2) =   -39.14010 eV ==== 
     psi = 0.989*[#   4]+0.004*[#   2]+0.004*[#   7]+
    |psi|^2 = 0.998
==== e(   3) =   -39.11105 eV ==== 
     psi = 0.988*[#   5]+0.007*[#   8]+0.004*[#  17]+
    |psi|^2 = 0.998
==== e(   4) =   -39.11105 eV ==== 
     psi = 0.988*[#   3]+0.007*[#   6]+0.004*[#  15]+
    |psi|^2 = 0.998
==== e(   5) =    -6.27966 eV ==== 
     psi = 0.677*[#  14]+0.213*[#   7]+0.085*[#   2]+0.011*[#   1]+0.008*[#  12]+
          +0.004*[#   4]+0.003*[#   9]+
    |psi|^2 = 1.000
==== e(   6) =     7.11768 eV ==== 
     psi = 0.657*[#  16]+0.130*[#  12]+0.070*[#   7]+0.047*[#   2]+0.043*[#   9]+
          +0.039*[#  14]+0.009*[#   1]+0.002*[#   4]+
    |psi|^2 = 0.997
==== e(   7) =     9.21215 eV ==== 
     psi = 0.858*[#  17]+0.095*[#  13]+0.040*[#   8]+0.002*[#  15]+0.002*[#   5]+
    |psi|^2 = 0.998
==== e(   8) =     9.21215 eV ==== 
     psi = 0.858*[#  15]+0.095*[#  10]+0.040*[#   6]+0.002*[#  17]+0.002*[#   3]+
    |psi|^2 = 0.998
==== e(   9) =    11.32244 eV ==== 
     psi = 0.989*[#  11]+
    |psi|^2 = 0.989
==== e(  10) =    12.44015 eV ==== 
     psi = 0.748*[#   9]+0.249*[#  12]+
    |psi|^2 = 0.998
==== e(  11) =    12.80642 eV ==== 
     psi = 0.897*[#  13]+0.101*[#  17]+
    |psi|^2 = 0.999
==== e(  12) =    12.80642 eV ==== 
     psi = 0.897*[#  10]+0.101*[#  15]+
    |psi|^2 = 0.999
==== e(  13) =    13.33680 eV ==== 
     psi = 0.563*[#  12]+0.188*[#   9]+0.095*[#  14]+0.057*[#   2]+0.055*[#  16]+
          +0.035*[#   7]+0.004*[#   1]+
    |psi|^2 = 0.997
==== e(  14) =    18.18274 eV ==== 
     psi = 0.282*[#  16]+0.241*[#   2]+0.222*[#   7]+0.173*[#  14]+0.048*[#  12]+
          +0.016*[#   9]+0.010*[#   1]+0.003*[#   4]+
    |psi|^2 = 0.995
==== e(  15) =    26.44616 eV ==== 
     psi = 0.011*[#  11]+
    |psi|^2 = 0.011

 k =   0.1235453086  0.0000000000  0.0000000000
==== e(   1) =   -73.30403 eV ==== 
     psi = 0.918*[#   1]+0.075*[#   7]+0.006*[#   2]+
    |psi|^2 = 1.000
==== e(   2) =   -39.15511 eV ==== 
     psi = 0.987*[#   4]+0.006*[#   7]+0.003*[#   2]+
    |psi|^2 = 0.998
==== e(   3) =   -39.12374 eV ==== 
     psi = 0.989*[#   5]+0.005*[#   8]+0.004*[#  17]+
    |psi|^2 = 0.998
==== e(   4) =   -39.12374 eV ==== 
     psi = 0.989*[#   3]+0.005*[#   6]+0.004*[#  15]+
    |psi|^2 = 0.998
==== e(   5) =    -6.16454 eV ==== 
     psi = 0.706*[#  14]+0.195*[#   7]+0.070*[#   2]+0.012*[#  12]+0.008*[#   1]+
          +0.004*[#   4]+0.004*[#   9]+
    |psi|^2 = 1.000
==== e(   6) =     6.87204 eV ==== 
     psi = 0.653*[#  16]+0.120*[#  12]+0.094*[#   7]+0.044*[#   2]+0.040*[#   9]+
          +0.035*[#  14]+0.009*[#   1]+0.003*[#   4]+
    |psi|^2 = 0.998
==== e(   7) =     9.11498 eV ==== 
     psi = 0.861*[#  17]+0.085*[#  13]+0.045*[#   8]+0.004*[#  15]+0.002*[#   5]+
    |psi|^2 = 0.998
==== e(   8) =     9.11498 eV ==== 
     psi = 0.861*[#  15]+0.085*[#  10]+0.045*[#   6]+0.004*[#  17]+0.002*[#   3]+
    |psi|^2 = 0.998
==== e(   9) =    11.20715 eV ==== 
     psi = 0.987*[#  11]+
    |psi|^2 = 0.987
==== e(  10) =    12.48705 eV ==== 
     psi = 0.749*[#   9]+0.250*[#  12]+
    |psi|^2 = 0.998
==== e(  11) =    12.91493 eV ==== 
     psi = 0.909*[#  13]+0.090*[#  17]+
    |psi|^2 = 0.999
==== e(  12) =    12.91493 eV ==== 
     psi = 0.909*[#  10]+0.090*[#  15]+
    |psi|^2 = 0.999
==== e(  13) =    13.38864 eV ==== 
     psi = 0.573*[#  12]+0.191*[#   9]+0.097*[#  14]+0.048*[#  16]+0.046*[#   2]+
          +0.038*[#   7]+0.003*[#   1]+
    |psi|^2 = 0.997
==== e(  14) =    18.82562 eV ==== 
     psi = 0.287*[#  16]+0.264*[#   2]+0.227*[#   7]+0.146*[#  14]+0.045*[#  12]+
          +0.015*[#   9]+0.007*[#   1]+0.003*[#   4]+
    |psi|^2 = 0.993
==== e(  15) =    26.15261 eV ==== 
     psi = 0.012*[#  11]+
    |psi|^2 = 0.012

 k =   0.1389884722  0.0000000000  0.0000000000
==== e(   1) =   -73.30287 eV ==== 
     psi = 0.929*[#   1]+0.063*[#   7]+0.007*[#   2]+
    |psi|^2 = 1.000
==== e(   2) =   -39.15920 eV ==== 
     psi = 0.985*[#   4]+0.008*[#   7]+0.003*[#   2]+0.002*[#  16]+
    |psi|^2 = 0.998
==== e(   3) =   -39.12525 eV ==== 
     psi = 0.990*[#   5]+0.005*[#  17]+0.003*[#   8]+
    |psi|^2 = 0.998
==== e(   4) =   -39.12524 eV ==== 
     psi = 0.990*[#   3]+0.005*[#  15]+0.003*[#   6]+
    |psi|^2 = 0.998
==== e(   5) =    -6.06176 eV ==== 
     psi = 0.739*[#  14]+0.169*[#   7]+0.058*[#   2]+0.018*[#  12]+0.006*[#   1]+
          +0.006*[#   9]+0.004*[#   4]+
    |psi|^2 = 1.000
==== e(   6) =     6.73911 eV ==== 
     psi = 0.655*[#  16]+0.120*[#   7]+0.106*[#  12]+0.039*[#   2]+0.035*[#   9]+
          +0.028*[#  14]+0.009*[#   1]+0.006*[#   4]+
    |psi|^2 = 0.998
==== e(   7) =     9.05626 eV ==== 
     psi = 0.859*[#  17]+0.070*[#  13]+0.050*[#   8]+0.015*[#  15]+0.003*[#   5]+
          +0.001*[#  10]+
    |psi|^2 = 0.998
==== e(   8) =     9.05626 eV ==== 
     psi = 0.859*[#  15]+0.070*[#  10]+0.050*[#   6]+0.015*[#  17]+0.003*[#   3]+
          +0.001*[#  13]+
    |psi|^2 = 0.998
==== e(   9) =    11.09587 eV ==== 
     psi = 0.986*[#  11]+
    |psi|^2 = 0.986
==== e(  10) =    12.53317 eV ==== 
     psi = 0.749*[#   9]+0.250*[#  12]+
    |psi|^2 = 0.998
==== e(  11) =    12.99418 eV ==== 
     psi = 0.924*[#  13]+0.075*[#  17]+
    |psi|^2 = 1.000
==== e(  12) =    12.99418 eV ==== 
     psi = 0.924*[#  10]+0.075*[#  15]+
    |psi|^2 = 1.000
==== e(  13) =    13.41535 eV ==== 
     psi = 0.587*[#  12]+0.196*[#   9]+0.096*[#  14]+0.044*[#  16]+0.036*[#   7]+
          +0.034*[#   2]+0.003*[#   1]+
    |psi|^2 = 0.996
==== e(  14) =    19.32276 eV ==== 
     psi = 0.310*[#   2]+0.277*[#  16]+0.225*[#   7]+0.121*[#  14]+0.038*[#  12]+
          +0.013*[#   9]+0.004*[#   1]+0.002*[#   4]+
    |psi|^2 = 0.991
==== e(  15) =    25.90878 eV ==== 
     psi = 0.013*[#  11]+
    |psi|^2 = 0.013

 k =   0.1544316358  0.0000000000  0.0000000000
==== e(   1) =   -73.30785 eV ==== 
     psi = 0.942*[#   1]+0.050*[#   7]+0.008*[#   2]+
    |psi|^2 = 1.000
==== e(   2) =   -39.22335 eV ==== 
     psi = 0.984*[#   4]+0.009*[#   7]+0.003*[#  16]+0.002*[#   2]+
    |psi|^2 = 0.998
==== e(   3) =   -39.13327 eV ==== 
     psi = 0.991*[#   5]+0.005*[#  17]+0.002*[#   8]+
    |psi|^2 = 0.998
==== e(   4) =   -39.13327 eV ==== 
     psi = 0.991*[#   3]+0.005*[#  15]+0.002*[#   6]+
    |psi|^2 = 0.998
==== e(   5) =    -5.97380 eV ==== 
     psi = 0.774*[#  14]+0.136*[#   7]+0.049*[#   2]+0.025*[#  12]+0.008*[#   9]+
          +0.004*[#   1]+0.003*[#   4]+
    |psi|^2 = 1.000
==== e(   6) =     6.62905 eV ==== 
     psi = 0.665*[#  16]+0.148*[#   7]+0.088*[#  12]+0.030*[#   2]+0.029*[#   9]+
          +0.021*[#  14]+0.008*[#   4]+0.008*[#   1]+
    |psi|^2 = 0.998
==== e(   7) =     9.01429 eV ==== 
     psi = 0.879*[#  17]+0.055*[#  13]+0.054*[#   8]+0.006*[#  15]+0.003*[#   5]+
    |psi|^2 = 0.998
==== e(   8) =     9.01429 eV ==== 
     psi = 0.879*[#  15]+0.055*[#  10]+0.054*[#   6]+0.006*[#  17]+0.003*[#   3]+
    |psi|^2 = 0.998
==== e(   9) =    10.99323 eV ==== 
     psi = 0.985*[#  11]+
    |psi|^2 = 0.985
==== e(  10) =    12.57647 eV ==== 
     psi = 0.749*[#   9]+0.250*[#  12]+
    |psi|^2 = 0.998
==== e(  11) =    13.04425 eV ==== 
     psi = 0.942*[#  13]+0.058*[#  17]+
    |psi|^2 = 1.000
==== e(  12) =    13.04425 eV ==== 
     psi = 0.942*[#  10]+0.058*[#  15]+
    |psi|^2 = 1.000
==== e(  13) =    13.40150 eV ==== 
     psi = 0.606*[#  12]+0.202*[#   9]+0.093*[#  14]+0.039*[#  16]+0.033*[#   7]+
          +0.020*[#   2]+0.002*[#   1]+
    |psi|^2 = 0.996
==== e(  14) =    19.67021 eV ==== 
     psi = 0.402*[#   2]+0.244*[#  16]+0.204*[#   7]+0.097*[#  14]+0.029*[#  12]+
          +0.010*[#   9]+0.002*[#   4]+0.001*[#   1]+
    |psi|^2 = 0.989
==== e(  15) =    25.67338 eV ==== 
     psi = 0.453*[#   2]+0.387*[#   7]+0.045*[#  16]+0.040*[#   1]+0.009*[#  14]+
    |psi|^2 = 0.935

 k =   0.1698747994  0.0000000000  0.0000000000
==== e(   1) =   -73.30374 eV ==== 
     psi = 0.955*[#   1]+0.036*[#   7]+0.008*[#   2]+
    |psi|^2 = 1.000
==== e(   2) =   -39.20430 eV ==== 
     psi = 0.983*[#   4]+0.009*[#   7]+0.005*[#  16]+0.002*[#   2]+
    |psi|^2 = 0.998
==== e(   3) =   -39.12750 eV ==== 
     psi = 0.992*[#   5]+0.005*[#  17]+0.002*[#   8]+
    |psi|^2 = 0.998
==== e(   4) =   -39.12750 eV ==== 
     psi = 0.992*[#   3]+0.005*[#  15]+0.002*[#   6]+
    |psi|^2 = 0.998
==== e(   5) =    -5.89964 eV ==== 
     psi = 0.809*[#  14]+0.099*[#   7]+0.043*[#   2]+0.033*[#  12]+0.011*[#   9]+
          +0.002*[#   1]+0.002*[#   4]+
    |psi|^2 = 0.999
==== e(   6) =     6.67869 eV ==== 
     psi = 0.682*[#  16]+0.174*[#   7]+0.068*[#  12]+0.023*[#   9]+0.022*[#   2]+
          +0.014*[#  14]+0.011*[#   4]+0.006*[#   1]+
    |psi|^2 = 0.998
==== e(   7) =     8.99058 eV ==== 
     psi = 0.880*[#  17]+0.057*[#   8]+0.038*[#  13]+0.017*[#  15]+0.003*[#   5]+
          +0.001*[#   6]+
    |psi|^2 = 0.998
==== e(   8) =     8.99058 eV ==== 
     psi = 0.880*[#  15]+0.057*[#   6]+0.038*[#  10]+0.017*[#  17]+0.003*[#   3]+
          +0.001*[#   8]+
    |psi|^2 = 0.998
==== e(   9) =    10.90335 eV ==== 
     psi = 0.984*[#  11]+
    |psi|^2 = 0.984
==== e(  10) =    12.61499 eV ==== 
     psi = 0.749*[#   9]+0.250*[#  12]+
    |psi|^2 = 0.998
==== e(  11) =    13.07092 eV ==== 
     psi = 0.959*[#  13]+0.041*[#  17]+
    |psi|^2 = 1.000
==== e(  12) =    13.07092 eV ==== 
     psi = 0.959*[#  10]+0.041*[#  15]+
    |psi|^2 = 1.000
==== e(  13) =    13.35883 eV ==== 
     psi = 0.627*[#  12]+0.209*[#   9]+0.088*[#  14]+0.033*[#  16]+0.027*[#   7]+
          +0.011*[#   2]+0.001*[#   1]+
    |psi|^2 = 0.997
==== e(  14) =    19.98500 eV ==== 
     psi = 0.511*[#   2]+0.197*[#  16]+0.176*[#   7]+0.076*[#  14]+0.020*[#  12]+
          +0.007*[#   9]+0.001*[#   4]+
    |psi|^2 = 0.987
==== e(  15) =    24.91792 eV ==== 
     psi = 0.446*[#   7]+0.376*[#   2]+0.079*[#  16]+0.033*[#   1]+0.008*[#  14]+
          +0.001*[#  12]+
    |psi|^2 = 0.944

 k =   0.1853179629  0.0000000000  0.0000000000
==== e(   1) =   -73.30982 eV ==== 
     psi = 0.968*[#   1]+0.023*[#   7]+0.008*[#   2]+
    |psi|^2 = 1.000
==== e(   2) =   -39.22799 eV ==== 
     psi = 0.983*[#   4]+0.008*[#   7]+0.007*[#  16]+0.001*[#   2]+
    |psi|^2 = 0.998
==== e(   3) =   -39.15614 eV ==== 
     psi = 0.992*[#   5]+0.005*[#  17]+0.001*[#   8]+
    |psi|^2 = 0.998
==== e(   4) =   -39.15614 eV ==== 
     psi = 0.992*[#   3]+0.005*[#  15]+0.001*[#   6]+
    |psi|^2 = 0.998
==== e(   5) =    -5.84731 eV ==== 
     psi = 0.841*[#  14]+0.062*[#   7]+0.041*[#  12]+0.038*[#   2]+0.014*[#   9]+
          +0.001*[#   4]+0.001*[#   1]+
    |psi|^2 = 0.999
==== e(   6) =     6.72695 eV ==== 
     psi = 0.704*[#  16]+0.197*[#   7]+0.044*[#  12]+0.015*[#   2]+0.015*[#   9]+
          +0.012*[#   4]+0.008*[#  14]+0.004*[#   1]+
    |psi|^2 = 0.999
==== e(   7) =     8.92051 eV ==== 
     psi = 0.894*[#  17]+0.062*[#   8]+0.023*[#  13]+0.015*[#  15]+0.004*[#   5]+
          +0.001*[#   6]+
    |psi|^2 = 0.999
==== e(   8) =     8.92051 eV ==== 
     psi = 0.894*[#  15]+0.062*[#   6]+0.023*[#  10]+0.015*[#  17]+0.004*[#   3]+
          +0.001*[#   8]+
    |psi|^2 = 0.999
==== e(   9) =    10.82965 eV ==== 
     psi = 0.984*[#  11]+
    |psi|^2 = 0.984
==== e(  10) =    12.64692 eV ==== 
     psi = 0.749*[#   9]+0.250*[#  12]+
    |psi|^2 = 0.999
==== e(  11) =    13.07820 eV ==== 
     psi = 0.976*[#  13]+0.024*[#  17]+
    |psi|^2 = 1.000
==== e(  12) =    13.07820 eV ==== 
     psi = 0.976*[#  10]+0.024*[#  15]+
    |psi|^2 = 1.000
==== e(  13) =    13.28329 eV ==== 
     psi = 0.650*[#  12]+0.217*[#   9]+0.083*[#  14]+0.023*[#  16]+0.018*[#   7]+
          +0.004*[#   2]+
    |psi|^2 = 0.997
==== e(  14) =    20.20643 eV ==== 
     psi = 0.648*[#   2]+0.136*[#  16]+0.129*[#   7]+0.056*[#  14]+0.011*[#  12]+
          +0.004*[#   9]+
    |psi|^2 = 0.985
==== e(  15) =    24.23727 eV ==== 
     psi = 0.531*[#   7]+0.265*[#   2]+0.124*[#  16]+0.024*[#   1]+0.006*[#  14]+
          +0.002*[#  12]+
    |psi|^2 = 0.952

 k =   0.2007611265  0.0000000000  0.0000000000
==== e(   1) =   -73.30606 eV ==== 
     psi = 0.980*[#   1]+0.011*[#   7]+0.009*[#   2]+
    |psi|^2 = 1.000
==== e(   2) =   -39.19730 eV ==== 
     psi = 0.983*[#   4]+0.008*[#  16]+0.006*[#   7]+
    |psi|^2 = 0.998
==== e(   3) =   -39.15550 eV ==== 
     psi = 0.992*[#   5]+0.006*[#  17]+
    |psi|^2 = 0.998
==== e(   4) =   -39.15550 eV ==== 
     psi = 0.992*[#   3]+0.006*[#  15]+
    |psi|^2 = 0.998
==== e(   5) =    -5.81073 eV ==== 
     psi = 0.869*[#  14]+0.048*[#  12]+0.035*[#   2]+0.030*[#   7]+0.016*[#   9]+
    |psi|^2 = 0.999
==== e(   6) =     6.79681 eV ==== 
     psi = 0.725*[#  16]+0.217*[#   7]+0.022*[#  12]+0.014*[#   4]+0.008*[#   2]+
          +0.007*[#   9]+0.004*[#  14]+0.002*[#   1]+
    |psi|^2 = 0.999
==== e(   7) =     8.91387 eV ==== 
     psi = 0.629*[#  15]+0.289*[#  17]+0.045*[#   6]+0.021*[#   8]+0.008*[#  10]+
          +0.003*[#  13]+0.003*[#   3]+0.001*[#   5]+
    |psi|^2 = 0.999
==== e(   8) =     8.91387 eV ==== 
     psi = 0.629*[#  17]+0.289*[#  15]+0.045*[#   8]+0.021*[#   6]+0.008*[#  13]+
          +0.003*[#  10]+0.003*[#   5]+0.001*[#   3]+
    |psi|^2 = 0.999
==== e(   9) =    10.77506 eV ==== 
     psi = 0.983*[#  11]+
    |psi|^2 = 0.983
==== e(  10) =    12.67089 eV ==== 
     psi = 0.749*[#   9]+0.250*[#  12]+
    |psi|^2 = 0.999
==== e(  11) =    13.07851 eV ==== 
     psi = 0.989*[#  13]+0.011*[#  17]+
    |psi|^2 = 1.000
==== e(  12) =    13.07852 eV ==== 
     psi = 0.989*[#  10]+0.011*[#  15]+
    |psi|^2 = 1.000
==== e(  13) =    13.20208 eV ==== 
     psi = 0.671*[#  12]+0.224*[#   9]+0.079*[#  14]+0.012*[#  16]+0.009*[#   7]+
    |psi|^2 = 0.998
==== e(  14) =    20.39076 eV ==== 
     psi = 0.797*[#   2]+0.069*[#  16]+0.066*[#   7]+0.041*[#  14]+0.005*[#  12]+
          +0.004*[#   1]+0.002*[#   9]+
    |psi|^2 = 0.984
==== e(  15) =    23.91046 eV ==== 
     psi = 0.625*[#   7]+0.177*[#  16]+0.133*[#   2]+0.013*[#   1]+0.004*[#  14]+
          +0.002*[#  12]+
    |psi|^2 = 0.953

 k =   0.2162042901  0.0000000000  0.0000000000
==== e(   1) =   -73.31318 eV ==== 
     psi = 0.988*[#   1]+0.009*[#   2]+0.003*[#   7]+
    |psi|^2 = 1.000
==== e(   2) =   -39.23637 eV ==== 
     psi = 0.983*[#   4]+0.010*[#  16]+0.005*[#   7]+
    |psi|^2 = 0.998
==== e(   3) =   -39.18156 eV ==== 
     psi = 0.992*[#   5]+0.006*[#  17]+
    |psi|^2 = 0.999
==== e(   4) =   -39.18156 eV ==== 
     psi = 0.992*[#   3]+0.006*[#  15]+
    |psi|^2 = 0.999
==== e(   5) =    -5.79050 eV ==== 
     psi = 0.887*[#  14]+0.053*[#  12]+0.033*[#   2]+0.018*[#   9]+0.008*[#   7]+
    |psi|^2 = 0.999
==== e(   6) =     6.81044 eV ==== 
     psi = 0.742*[#  16]+0.232*[#   7]+0.014*[#   4]+0.006*[#  12]+0.002*[#   9]+
          +0.002*[#   2]+
    |psi|^2 = 1.000
==== e(   7) =     8.90685 eV ==== 
     psi = 0.573*[#  17]+0.353*[#  15]+0.041*[#   8]+0.025*[#   6]+0.003*[#   5]+
          +0.002*[#  13]+0.002*[#   3]+0.001*[#  10]+
    |psi|^2 = 0.999
==== e(   8) =     8.90685 eV ==== 
     psi = 0.573*[#  15]+0.353*[#  17]+0.041*[#   6]+0.025*[#   8]+0.003*[#   3]+
          +0.002*[#  10]+0.002*[#   5]+0.001*[#  13]+
    |psi|^2 = 0.999
==== e(   9) =    10.74150 eV ==== 
     psi = 0.983*[#  11]+
    |psi|^2 = 0.983
==== e(  10) =    12.68572 eV ==== 
     psi = 0.749*[#   9]+0.250*[#  12]+
    |psi|^2 = 0.999
==== e(  11) =    13.07573 eV ==== 
     psi = 0.997*[#  13]+0.003*[#  17]+
    |psi|^2 = 1.000
==== e(  12) =    13.07573 eV ==== 
     psi = 0.997*[#  10]+0.003*[#  15]+
    |psi|^2 = 1.000
==== e(  13) =    13.13787 eV ==== 
     psi = 0.686*[#  12]+0.229*[#   9]+0.076*[#  14]+0.003*[#  16]+0.003*[#   7]+
    |psi|^2 = 0.998
==== e(  14) =    20.41399 eV ==== 
     psi = 0.906*[#   2]+0.032*[#  14]+0.018*[#   7]+0.018*[#  16]+0.008*[#   1]+
          +0.002*[#  12]+
    |psi|^2 = 0.985
==== e(  15) =    23.64648 eV ==== 
     psi = 0.698*[#   7]+0.217*[#  16]+0.036*[#   2]+0.004*[#   1]+0.001*[#  14]+
    |psi|^2 = 0.957

 k =   0.2316474537  0.0000000000  0.0000000000
==== e(   1) =   -73.31323 eV ==== 
     psi = 0.990*[#   1]+0.009*[#   2]+
    |psi|^2 = 1.000
==== e(   2) =   -39.23831 eV ==== 
     psi = 0.984*[#   4]+0.010*[#  16]+0.005*[#   7]+
    |psi|^2 = 0.998
==== e(   3) =   -39.18226 eV ==== 
     psi = 0.992*[#   5]+0.006*[#  17]+
    |psi|^2 = 0.999
==== e(   4) =   -39.18226 eV ==== 
     psi = 0.992*[#   3]+0.006*[#  15]+
    |psi|^2 = 0.999
==== e(   5) =    -5.78377 eV ==== 
     psi = 0.893*[#  14]+0.055*[#  12]+0.033*[#   2]+0.018*[#   9]+
    |psi|^2 = 0.999
==== e(   6) =     6.83038 eV ==== 
     psi = 0.749*[#  16]+0.237*[#   7]+0.015*[#   4]+
    |psi|^2 = 1.000
==== e(   7) =     8.90568 eV ==== 
     psi = 0.882*[#  15]+0.063*[#   6]+0.047*[#  17]+0.004*[#   3]+0.003*[#   8]+
    |psi|^2 = 0.999
==== e(   8) =     8.90568 eV ==== 
     psi = 0.882*[#  17]+0.063*[#   8]+0.047*[#  15]+0.004*[#   5]+0.003*[#   6]+
    |psi|^2 = 0.999
==== e(   9) =    10.73018 eV ==== 
     psi = 0.983*[#  11]+
    |psi|^2 = 0.983
==== e(  10) =    12.69075 eV ==== 
     psi = 0.749*[#   9]+0.250*[#  12]+
    |psi|^2 = 0.999
==== e(  11) =    13.07432 eV ==== 
     psi = 1.000*[#  13]+
    |psi|^2 = 1.000
==== e(  12) =    13.07432 eV ==== 
     psi = 1.000*[#  10]+
    |psi|^2 = 1.000
==== e(  13) =    13.11388 eV ==== 
     psi = 0.692*[#  12]+0.231*[#   9]+0.075*[#  14]+
    |psi|^2 = 0.998
==== e(  14) =    20.43732 eV ==== 
     psi = 0.945*[#   2]+0.029*[#  14]+0.009*[#   1]+0.001*[#  12]+
    |psi|^2 = 0.985
==== e(  15) =    23.57282 eV ==== 
     psi = 0.726*[#   7]+0.231*[#  16]+
    |psi|^2 = 0.957

 k =   0.2316474537  0.0000000000  0.0165462467
==== e(   1) =   -73.30662 eV ==== 
     psi = 0.990*[#   1]+0.009*[#   2]+
    |psi|^2 = 1.000
==== e(   2) =   -39.22509 eV ==== 
     psi = 0.984*[#   4]+0.010*[#  16]+0.004*[#   7]+
    |psi|^2 = 0.998
==== e(   3) =   -39.16503 eV ==== 
     psi = 0.992*[#   5]+0.006*[#  17]+
    |psi|^2 = 0.998
==== e(   4) =   -39.13623 eV ==== 
     psi = 0.992*[#   3]+0.006*[#  15]+
    |psi|^2 = 0.998
==== e(   5) =    -5.77625 eV ==== 
     psi = 0.893*[#  14]+0.055*[#  12]+0.031*[#   2]+0.018*[#   9]+0.003*[#   6]+
    |psi|^2 = 0.999
==== e(   6) =     6.86762 eV ==== 
     psi = 0.749*[#  16]+0.234*[#   7]+0.014*[#   4]+0.002*[#  10]+
    |psi|^2 = 1.000
==== e(   7) =     8.82705 eV ==== 
     psi = 0.907*[#  15]+0.064*[#   6]+0.019*[#   9]+0.004*[#   2]+0.004*[#   3]+
    |psi|^2 = 0.999
==== e(   8) =     8.83176 eV ==== 
     psi = 0.898*[#  17]+0.069*[#   8]+0.027*[#  11]+0.004*[#   5]+
    |psi|^2 = 0.998
==== e(   9) =    10.81884 eV ==== 
     psi = 0.955*[#  11]+0.029*[#  17]+
    |psi|^2 = 0.984
==== e(  10) =    12.75023 eV ==== 
     psi = 0.665*[#   9]+0.319*[#  12]+0.013*[#  15]+0.001*[#   6]+
    |psi|^2 = 0.999
==== e(  11) =    13.06764 eV ==== 
     psi = 0.997*[#  10]+0.003*[#  16]+
    |psi|^2 = 1.000
==== e(  12) =    13.07437 eV ==== 
     psi = 1.000*[#  13]+
    |psi|^2 = 1.000
==== e(  13) =    13.13215 eV ==== 
     psi = 0.622*[#  12]+0.297*[#   9]+0.073*[#  14]+0.006*[#  15]+
    |psi|^2 = 0.998
==== e(  14) =    20.53677 eV ==== 
     psi = 0.939*[#   2]+0.029*[#  14]+0.009*[#   1]+0.003*[#  15]+0.003*[#   6]+
          +0.001*[#  12]+
    |psi|^2 = 0.984
==== e(  15) =    23.57356 eV ==== 
     psi = 0.728*[#   7]+0.228*[#  16]+
    |psi|^2 = 0.956

 k =   0.2316474537  0.0000000000  0.0330924934
==== e(   1) =   -73.30080 eV ==== 
     psi = 0.989*[#   1]+0.009*[#   2]+
    |psi|^2 = 1.000
==== e(   2) =   -39.20510 eV ==== 
     psi = 0.984*[#   4]+0.010*[#  16]+0.003*[#   7]+
    |psi|^2 = 0.998
==== e(   3) =   -39.14593 eV ==== 
     psi = 0.991*[#   5]+0.006*[#  17]+
    |psi|^2 = 0.998
==== e(   4) =   -39.10862 eV ==== 
     psi = 0.992*[#   3]+0.005*[#  15]+0.001*[#   6]+
    |psi|^2 = 0.998
==== e(   5) =    -5.75791 eV ==== 
     psi = 0.891*[#  14]+0.055*[#  12]+0.026*[#   2]+0.015*[#   9]+0.012*[#   6]+
    |psi|^2 = 0.999
==== e(   6) =     6.92427 eV ==== 
     psi = 0.751*[#  16]+0.226*[#   7]+0.013*[#   4]+0.010*[#  10]+
    |psi|^2 = 1.000
==== e(   7) =     8.64798 eV ==== 
     psi = 0.863*[#  15]+0.063*[#   9]+0.051*[#   6]+0.017*[#   2]+0.003*[#   3]+
          +0.001*[#  14]+
    |psi|^2 = 0.999
==== e(   8) =     8.64848 eV ==== 
     psi = 0.843*[#  17]+0.076*[#  11]+0.074*[#   8]+0.004*[#   5]+
    |psi|^2 = 0.998
==== e(   9) =    11.04630 eV ==== 
     psi = 0.906*[#  11]+0.080*[#  17]+
    |psi|^2 = 0.986
==== e(  10) =    12.87367 eV ==== 
     psi = 0.577*[#  12]+0.383*[#   9]+0.024*[#  15]+0.012*[#  14]+0.002*[#   6]+
          +0.001*[#   2]+
    |psi|^2 = 0.999
==== e(  11) =    13.04594 eV ==== 
     psi = 0.988*[#  10]+0.012*[#  16]+
    |psi|^2 = 1.000
==== e(  12) =    13.07449 eV ==== 
     psi = 1.000*[#  13]+
    |psi|^2 = 1.000
==== e(  13) =    13.21231 eV ==== 
     psi = 0.537*[#   9]+0.365*[#  12]+0.057*[#  14]+0.034*[#  15]+0.002*[#   2]+
          +0.001*[#   6]+
    |psi|^2 = 0.998
==== e(  14) =    20.79443 eV ==== 
     psi = 0.922*[#   2]+0.027*[#  14]+0.013*[#  15]+0.010*[#   6]+0.009*[#   1]+
          +0.001*[#  12]+
    |psi|^2 = 0.983
==== e(  15) =    23.59810 eV ==== 
     psi = 0.733*[#   7]+0.217*[#  16]+0.002*[#  10]+
    |psi|^2 = 0.952

 k =   0.2316474537  0.0000000000  0.0496387401
==== e(   1) =   -73.30417 eV ==== 
     psi = 0.988*[#   1]+0.009*[#   2]+0.001*[#  15]+
    |psi|^2 = 1.000
==== e(   2) =   -39.20476 eV ==== 
     psi = 0.986*[#   4]+0.010*[#  16]+0.002*[#   7]+
    |psi|^2 = 0.998
==== e(   3) =   -39.15889 eV ==== 
     psi = 0.991*[#   5]+0.006*[#  17]+
    |psi|^2 = 0.998
==== e(   4) =   -39.13004 eV ==== 
     psi = 0.991*[#   3]+0.004*[#  15]+0.002*[#   6]+
    |psi|^2 = 0.998
==== e(   5) =    -5.73290 eV ==== 
     psi = 0.889*[#  14]+0.055*[#  12]+0.024*[#   6]+0.020*[#   2]+0.012*[#   9]+
    |psi|^2 = 0.999
==== e(   6) =     6.97993 eV ==== 
     psi = 0.752*[#  16]+0.214*[#   7]+0.022*[#  10]+0.012*[#   4]+
    |psi|^2 = 1.000
==== e(   7) =     8.30879 eV ==== 
     psi = 0.819*[#  15]+0.106*[#   9]+0.038*[#   6]+0.032*[#   2]+0.002*[#   3]+
          +0.001*[#  14]+
    |psi|^2 = 0.999
==== e(   8) =     8.38404 eV ==== 
     psi = 0.802*[#  17]+0.107*[#  11]+0.084*[#   8]+0.005*[#   5]+
    |psi|^2 = 0.998
==== e(   9) =    11.34093 eV ==== 
     psi = 0.873*[#  11]+0.115*[#  17]+
    |psi|^2 = 0.989
==== e(  10) =    12.95291 eV ==== 
     psi = 0.820*[#  12]+0.129*[#   9]+0.033*[#  14]+0.014*[#  15]+0.002*[#   6]+
          +0.001*[#   2]+
    |psi|^2 = 0.999
==== e(  11) =    13.00388 eV ==== 
     psi = 0.974*[#  10]+0.026*[#  16]+
    |psi|^2 = 1.000
==== e(  12) =    13.07466 eV ==== 
     psi = 1.000*[#  13]+
    |psi|^2 = 1.000
==== e(  13) =    13.37576 eV ==== 
     psi = 0.751*[#   9]+0.123*[#  12]+0.081*[#  15]+0.031*[#  14]+0.009*[#   2]+
          +0.002*[#   6]+
    |psi|^2 = 0.998
==== e(  14) =    21.12073 eV ==== 
     psi = 0.898*[#   2]+0.029*[#  15]+0.024*[#  14]+0.020*[#   6]+0.010*[#   1]+
    |psi|^2 = 0.983
==== e(  15) =    23.60602 eV ==== 
     psi = 0.741*[#   7]+0.202*[#  16]+0.004*[#  10]+
    |psi|^2 = 0.947

 k =   0.2316474537  0.0000000000  0.0661849868
==== e(   1) =   -73.30617 eV ==== 
     psi = 0.987*[#   1]+0.010*[#   2]+0.002*[#  15]+
    |psi|^2 = 1.000
==== e(   2) =   -39.20501 eV ==== 
     psi = 0.987*[#   4]+0.010*[#  16]+0.001*[#   7]+
    |psi|^2 = 0.998
==== e(   3) =   -39.16509 eV ==== 
     psi = 0.991*[#   3]+0.004*[#   6]+0.002*[#  15]+
    |psi|^2 = 0.998
==== e(   4) =   -39.14536 eV ==== 
     psi = 0.990*[#   5]+0.007*[#  17]+
    |psi|^2 = 0.998
==== e(   5) =    -5.70457 eV ==== 
     psi = 0.886*[#  14]+0.054*[#  12]+0.039*[#   6]+0.012*[#   2]+0.007*[#   9]+
    |psi|^2 = 0.999
==== e(   6) =     7.05565 eV ==== 
     psi = 0.753*[#  16]+0.199*[#   7]+0.037*[#  10]+0.011*[#   4]+
    |psi|^2 = 1.000
==== e(   7) =     8.01695 eV ==== 
     psi = 0.785*[#  15]+0.142*[#   9]+0.045*[#   2]+0.023*[#   6]+0.001*[#   3]+
          +0.001*[#  14]+
    |psi|^2 = 0.999
==== e(   8) =     8.13188 eV ==== 
     psi = 0.777*[#  17]+0.120*[#  11]+0.097*[#   8]+0.005*[#   5]+
    |psi|^2 = 0.998
==== e(   9) =    11.65866 eV ==== 
     psi = 0.859*[#  11]+0.132*[#  17]+
    |psi|^2 = 0.991
==== e(  10) =    12.93407 eV ==== 
     psi = 0.956*[#  10]+0.044*[#  16]+
    |psi|^2 = 0.999
==== e(  11) =    12.98811 eV ==== 
     psi = 0.907*[#  12]+0.045*[#  14]+0.039*[#   9]+0.005*[#  15]+0.002*[#   6]+
    |psi|^2 = 0.999
==== e(  12) =    13.07486 eV ==== 
     psi = 1.000*[#  13]+
    |psi|^2 = 1.000
==== e(  13) =    13.57391 eV ==== 
     psi = 0.808*[#   9]+0.117*[#  15]+0.037*[#  12]+0.020*[#   2]+0.014*[#  14]+
          +0.002*[#   6]+
    |psi|^2 = 0.999
==== e(  14) =    21.51757 eV ==== 
     psi = 0.878*[#   2]+0.050*[#  15]+0.023*[#   6]+0.019*[#  14]+0.011*[#   1]+
          +0.002*[#   9]+
    |psi|^2 = 0.983
==== e(  15) =    23.63303 eV ==== 
     psi = 0.748*[#   7]+0.182*[#  16]+0.007*[#  10]+
    |psi|^2 = 0.938

 k =   0.2316474537  0.0000000000  0.0827312335
==== e(   1) =   -73.31314 eV ==== 
     psi = 0.986*[#   1]+0.010*[#   2]+0.003*[#  15]+
    |psi|^2 = 1.000
==== e(   2) =   -39.20457 eV ==== 
     psi = 0.988*[#   4]+0.010*[#  16]+
    |psi|^2 = 0.998
==== e(   3) =   -39.19679 eV ==== 
     psi = 0.990*[#   3]+0.006*[#   6]+0.001*[#  14]+0.001*[#  15]+
    |psi|^2 = 0.998
==== e(   4) =   -39.19325 eV ==== 
     psi = 0.990*[#   5]+0.008*[#  17]+
    |psi|^2 = 0.998
==== e(   5) =    -5.67990 eV ==== 
     psi = 0.883*[#  14]+0.054*[#  12]+0.052*[#   6]+0.006*[#   2]+0.004*[#   9]+
    |psi|^2 = 0.999
==== e(   6) =     7.15853 eV ==== 
     psi = 0.754*[#  16]+0.181*[#   7]+0.055*[#  10]+0.010*[#   4]+
    |psi|^2 = 0.999
==== e(   7) =     7.76147 eV ==== 
     psi = 0.763*[#  15]+0.167*[#   9]+0.057*[#   2]+0.011*[#   6]+
    |psi|^2 = 0.999
==== e(   8) =     7.83565 eV ==== 
     psi = 0.766*[#  17]+0.116*[#  11]+0.111*[#   8]+0.005*[#   5]+
    |psi|^2 = 0.999
==== e(   9) =    11.95954 eV ==== 
     psi = 0.863*[#  11]+0.130*[#  17]+
    |psi|^2 = 0.994
==== e(  10) =    12.82842 eV ==== 
     psi = 0.934*[#  10]+0.064*[#  16]+
    |psi|^2 = 0.999
==== e(  11) =    13.00436 eV ==== 
     psi = 0.933*[#  12]+0.050*[#  14]+0.012*[#   9]+0.002*[#  15]+0.002*[#   6]+
    |psi|^2 = 0.999
==== e(  12) =    13.07504 eV ==== 
     psi = 1.000*[#  13]+
    |psi|^2 = 1.000
==== e(  13) =    13.73425 eV ==== 
     psi = 0.812*[#   9]+0.136*[#  15]+0.033*[#   2]+0.011*[#  12]+0.006*[#  14]+
          +0.001*[#   6]+
    |psi|^2 = 0.999
==== e(  14) =    21.91291 eV ==== 
     psi = 0.864*[#   2]+0.073*[#  15]+0.018*[#   6]+0.012*[#   1]+0.011*[#  14]+
          +0.005*[#   9]+
    |psi|^2 = 0.982
==== e(  15) =    23.68502 eV ==== 
     psi = 0.753*[#   7]+0.159*[#  16]+0.010*[#  10]+0.001*[#   4]+
    |psi|^2 = 0.923

 k =   0.2316474537 -0.0000000000  0.0992774801
==== e(   1) =   -73.31017 eV ==== 
     psi = 0.986*[#   1]+0.011*[#   2]+0.003*[#  15]+
    |psi|^2 = 1.000
==== e(   2) =   -39.19426 eV ==== 
     psi = 0.989*[#   3]+0.007*[#   6]+0.002*[#  14]+
    |psi|^2 = 0.998
==== e(   3) =   -39.19198 eV ==== 
     psi = 0.988*[#   4]+0.009*[#  16]+
    |psi|^2 = 0.998
==== e(   4) =   -39.17523 eV ==== 
     psi = 0.989*[#   5]+0.008*[#  17]+
    |psi|^2 = 0.998
==== e(   5) =    -5.66234 eV ==== 
     psi = 0.881*[#  14]+0.061*[#   6]+0.054*[#  12]+0.002*[#   2]+
    |psi|^2 = 0.999
==== e(   6) =     7.29573 eV ==== 
     psi = 0.755*[#  16]+0.162*[#   7]+0.074*[#  10]+0.008*[#   4]+
    |psi|^2 = 0.999
==== e(   7) =     7.61042 eV ==== 
     psi = 0.749*[#  15]+0.182*[#   9]+0.064*[#   2]+0.003*[#   6]+
    |psi|^2 = 0.999
==== e(   8) =     7.65948 eV ==== 
     psi = 0.758*[#  17]+0.126*[#   8]+0.109*[#  11]+0.006*[#   5]+
    |psi|^2 = 0.999
==== e(   9) =    12.24672 eV ==== 
     psi = 0.871*[#  11]+0.124*[#  17]+
    |psi|^2 = 0.995
==== e(  10) =    12.68074 eV ==== 
     psi = 0.911*[#  10]+0.087*[#  16]+
    |psi|^2 = 0.998
==== e(  11) =    13.01262 eV ==== 
     psi = 0.942*[#  12]+0.052*[#  14]+0.002*[#   9]+0.002*[#   6]+
    |psi|^2 = 0.999
==== e(  12) =    13.07517 eV ==== 
     psi = 1.000*[#  13]+
    |psi|^2 = 1.000
==== e(  13) =    13.83997 eV ==== 
     psi = 0.807*[#   9]+0.145*[#  15]+0.042*[#   2]+0.002*[#  12]+0.001*[#  14]+
    |psi|^2 = 0.999
==== e(  14) =    22.28234 eV ==== 
     psi = 0.859*[#   2]+0.092*[#  15]+0.013*[#   1]+0.007*[#   6]+0.007*[#   9]+
          +0.004*[#  14]+
    |psi|^2 = 0.982
==== e(  15) =    23.79158 eV ==== 
     psi = 0.750*[#   7]+0.134*[#  16]+0.014*[#  10]+0.002*[#   4]+
    |psi|^2 = 0.899

 k =   0.2316474537 -0.0000000000  0.1158237268
==== e(   1) =   -73.30867 eV ==== 
     psi = 0.986*[#   1]+0.011*[#   2]+0.004*[#  15]+
    |psi|^2 = 1.000
==== e(   2) =   -39.18233 eV ==== 
     psi = 0.988*[#   4]+0.009*[#  16]+
    |psi|^2 = 0.998
==== e(   3) =   -39.18233 eV ==== 
     psi = 0.988*[#   5]+0.009*[#  17]+
    |psi|^2 = 0.998
==== e(   4) =   -39.17914 eV ==== 
     psi = 0.989*[#   3]+0.007*[#   6]+0.002*[#  14]+
    |psi|^2 = 0.998
==== e(   5) =    -5.65581 eV ==== 
     psi = 0.881*[#  14]+0.065*[#   6]+0.054*[#  12]+
    |psi|^2 = 1.000
==== e(   6) =     7.46281 eV ==== 
     psi = 0.753*[#  16]+0.143*[#   7]+0.093*[#  10]+0.007*[#   4]+0.002*[#  17]+
    |psi|^2 = 0.999
==== e(   7) =     7.46281 eV ==== 
     psi = 0.753*[#  17]+0.143*[#   8]+0.093*[#  11]+0.007*[#   5]+0.002*[#  16]+
    |psi|^2 = 0.999
==== e(   8) =     7.56427 eV ==== 
     psi = 0.744*[#  15]+0.187*[#   9]+0.067*[#   2]+
    |psi|^2 = 0.999
==== e(   9) =    12.48664 eV ==== 
     psi = 0.881*[#  10]+0.106*[#  16]+0.009*[#  11]+0.001*[#  17]+
    |psi|^2 = 0.997
==== e(  10) =    12.48664 eV ==== 
     psi = 0.881*[#  11]+0.106*[#  17]+0.009*[#  10]+0.001*[#  16]+
    |psi|^2 = 0.997
==== e(  11) =    13.01515 eV ==== 
     psi = 0.945*[#  12]+0.052*[#  14]+0.002*[#   6]+
    |psi|^2 = 0.999
==== e(  12) =    13.07522 eV ==== 
     psi = 1.000*[#  13]+
    |psi|^2 = 1.000
==== e(  13) =    13.87737 eV ==== 
     psi = 0.805*[#   9]+0.148*[#  15]+0.046*[#   2]+
    |psi|^2 = 0.999
==== e(  14) =    22.44523 eV ==== 
     psi = 0.859*[#   2]+0.101*[#  15]+0.013*[#   1]+0.008*[#   9]+
    |psi|^2 = 0.981
==== e(  15) =    23.93061 eV ==== 
     psi = 0.728*[#   7]+0.109*[#  16]+0.016*[#  10]+0.005*[#   8]+0.003*[#   4]+
    |psi|^2 = 0.862

 k =   0.2200650810  0.0000000000  0.1274060995
==== e(   1) =   -73.31104 eV ==== 
     psi = 0.986*[#   1]+0.011*[#   2]+0.003*[#  15]+
    |psi|^2 = 1.000
==== e(   2) =   -39.19993 eV ==== 
     psi = 0.969*[#   4]+0.020*[#   3]+0.008*[#  16]+
    |psi|^2 = 0.998
==== e(   3) =   -39.18986 eV ==== 
     psi = 0.989*[#   5]+0.009*[#  17]+
    |psi|^2 = 0.998
==== e(   4) =   -39.18076 eV ==== 
     psi = 0.969*[#   3]+0.020*[#   4]+0.007*[#   6]+0.002*[#  14]+
    |psi|^2 = 0.998
==== e(   5) =    -5.65867 eV ==== 
     psi = 0.880*[#  14]+0.063*[#   6]+0.053*[#  12]+0.001*[#   7]+
    |psi|^2 = 0.999
==== e(   6) =     7.34746 eV ==== 
     psi = 0.755*[#  17]+0.156*[#   8]+0.080*[#  11]+0.008*[#   5]+0.001*[#  13]+
    |psi|^2 = 0.999
==== e(   7) =     7.42507 eV ==== 
     psi = 0.410*[#  16]+0.336*[#  15]+0.073*[#   7]+0.066*[#  10]+0.065*[#   9]+
          +0.042*[#   2]+0.003*[#   4]+0.002*[#  12]+0.001*[#   6]+
    |psi|^2 = 0.999
==== e(   8) =     7.70920 eV ==== 
     psi = 0.409*[#  15]+0.345*[#  16]+0.121*[#   9]+0.057*[#   7]+0.036*[#  10]+
          +0.025*[#   2]+0.003*[#   4]+0.002*[#  12]+
    |psi|^2 = 0.999
==== e(   9) =    12.31833 eV ==== 
     psi = 0.870*[#  10]+0.110*[#  16]+0.013*[#  12]+0.001*[#  15]+
    |psi|^2 = 0.996
==== e(  10) =    12.62798 eV ==== 
     psi = 0.903*[#  11]+0.092*[#  17]+0.003*[#  13]+
    |psi|^2 = 0.998
==== e(  11) =    13.03992 eV ==== 
     psi = 0.928*[#  12]+0.051*[#  14]+0.009*[#  10]+0.008*[#  16]+0.002*[#   6]+
    |psi|^2 = 0.999
==== e(  12) =    13.07453 eV ==== 
     psi = 0.996*[#  13]+0.003*[#  17]+0.002*[#  11]+
    |psi|^2 = 1.000
==== e(  13) =    13.87428 eV ==== 
     psi = 0.805*[#   9]+0.148*[#  15]+0.043*[#   2]+0.003*[#  16]+
    |psi|^2 = 0.999
==== e(  14) =    22.38051 eV ==== 
     psi = 0.857*[#   2]+0.097*[#  15]+0.013*[#   1]+0.007*[#   9]+0.002*[#   6]+
          +0.002*[#  16]+0.001*[#  14]+
    |psi|^2 = 0.981
==== e(  15) =    23.82827 eV ==== 
     psi = 0.747*[#   8]+0.126*[#  17]+0.014*[#  11]+0.002*[#   5]+
    |psi|^2 = 0.890

 k =   0.2084827083  0.0000000000  0.1389884722
==== e(   1) =   -73.30884 eV ==== 
     psi = 0.986*[#   1]+0.010*[#   2]+0.003*[#  15]+
    |psi|^2 = 1.000
==== e(   2) =   -39.19539 eV ==== 
     psi = 0.717*[#   3]+0.273*[#   4]+0.003*[#   6]+0.002*[#  16]+0.001*[#  14]+
    |psi|^2 = 0.998
==== e(   3) =   -39.19493 eV ==== 
     psi = 0.988*[#   5]+0.009*[#  17]+
    |psi|^2 = 0.998
==== e(   4) =   -39.15336 eV ==== 
     psi = 0.716*[#   4]+0.273*[#   3]+0.005*[#  16]+0.003*[#   6]+
    |psi|^2 = 0.998
==== e(   5) =    -5.66492 eV ==== 
     psi = 0.879*[#  14]+0.058*[#   6]+0.051*[#  12]+0.005*[#   7]+0.002*[#   2]+
          +0.002*[#   9]+
    |psi|^2 = 0.999
==== e(   6) =     7.25972 eV ==== 
     psi = 0.754*[#  17]+0.166*[#   8]+0.066*[#  11]+0.008*[#   5]+0.005*[#  13]+
    |psi|^2 = 0.999
==== e(   7) =     7.35439 eV ==== 
     psi = 0.396*[#  15]+0.344*[#  16]+0.072*[#  10]+0.060*[#   9]+0.057*[#   2]+
          +0.056*[#   7]+0.006*[#  12]+0.005*[#   6]+0.003*[#   4]+
    |psi|^2 = 0.999
==== e(   8) =     7.93467 eV ==== 
     psi = 0.406*[#  16]+0.350*[#  15]+0.127*[#   9]+0.057*[#   7]+0.034*[#  10]+
          +0.011*[#   2]+0.009*[#  12]+0.003*[#   4]+0.002*[#   6]+
    |psi|^2 = 0.999
==== e(   9) =    12.14739 eV ==== 
     psi = 0.854*[#  10]+0.100*[#  16]+0.031*[#  12]+0.005*[#  15]+0.002*[#  14]+
          +0.002*[#   2]+
    |psi|^2 = 0.995
==== e(  10) =    12.74580 eV ==== 
     psi = 0.909*[#  11]+0.071*[#  17]+0.018*[#  13]+
    |psi|^2 = 0.998
==== e(  11) =    13.07163 eV ==== 
     psi = 0.976*[#  13]+0.012*[#  11]+0.011*[#  17]+
    |psi|^2 = 1.000
==== e(  12) =    13.10833 eV ==== 
     psi = 0.900*[#  12]+0.050*[#  14]+0.025*[#  16]+0.019*[#  10]+0.002*[#   7]+
          +0.001*[#   6]+
    |psi|^2 = 0.999
==== e(  13) =    13.86678 eV ==== 
     psi = 0.804*[#   9]+0.146*[#  15]+0.033*[#   2]+0.011*[#  16]+0.001*[#   7]+
          +0.001*[#   6]+0.001*[#  14]+
    |psi|^2 = 0.999
==== e(  14) =    22.25505 eV ==== 
     psi = 0.860*[#   2]+0.083*[#  15]+0.013*[#   1]+0.008*[#   6]+0.006*[#  16]+
          +0.005*[#   9]+0.005*[#  14]+
    |psi|^2 = 0.981
==== e(  15) =    23.74907 eV ==== 
     psi = 0.755*[#   8]+0.140*[#  17]+0.012*[#  11]+0.002*[#   5]+
    |psi|^2 = 0.909

 k =   0.1969003356  0.0000000000  0.1505708449
==== e(   1) =   -73.30886 eV ==== 
     psi = 0.986*[#   1]+0.010*[#   2]+0.003*[#  15]+
    |psi|^2 = 1.000
==== e(   2) =   -39.19664 eV ==== 
     psi = 0.704*[#   3]+0.287*[#   4]+0.002*[#   6]+0.002*[#  16]+0.001*[#  14]+
          +0.001*[#  15]+
    |psi|^2 = 0.998
==== e(   3) =   -39.19663 eV ==== 
     psi = 0.988*[#   5]+0.010*[#  17]+
    |psi|^2 = 0.998
==== e(   4) =   -39.14881 eV ==== 
     psi = 0.704*[#   4]+0.286*[#   3]+0.004*[#  16]+0.002*[#   6]+
    |psi|^2 = 0.998
==== e(   5) =    -5.67191 eV ==== 
     psi = 0.879*[#  14]+0.051*[#   6]+0.048*[#  12]+0.011*[#   7]+0.005*[#   9]+
          +0.004*[#   2]+
    |psi|^2 = 0.999
==== e(   6) =     7.19517 eV ==== 
     psi = 0.753*[#  17]+0.174*[#   8]+0.053*[#  11]+0.011*[#  13]+0.009*[#   5]+
    |psi|^2 = 0.999
==== e(   7) =     7.29790 eV ==== 
     psi = 0.389*[#  15]+0.345*[#  16]+0.083*[#  10]+0.065*[#   2]+0.048*[#   7]+
          +0.041*[#   9]+0.012*[#   6]+0.012*[#  12]+0.002*[#   4]+
    |psi|^2 = 0.999
==== e(   8) =     8.10184 eV ==== 
     psi = 0.400*[#  16]+0.358*[#  15]+0.143*[#   9]+0.045*[#   7]+0.020*[#  12]+
          +0.019*[#  10]+0.006*[#   6]+0.005*[#   2]+0.002*[#   4]+
    |psi|^2 = 0.999
==== e(   9) =    11.99341 eV ==== 
     psi = 0.853*[#  10]+0.082*[#  16]+0.039*[#  12]+0.012*[#  15]+0.004*[#  14]+
          +0.003*[#   2]+
    |psi|^2 = 0.994
==== e(  10) =    12.83697 eV ==== 
     psi = 0.888*[#  11]+0.065*[#  13]+0.046*[#  17]+
    |psi|^2 = 0.999
==== e(  11) =    13.06526 eV ==== 
     psi = 0.923*[#  13]+0.049*[#  11]+0.028*[#  17]+
    |psi|^2 = 1.000
==== e(  12) =    13.19719 eV ==== 
     psi = 0.866*[#  12]+0.049*[#  14]+0.039*[#  16]+0.021*[#  10]+0.013*[#   9]+
          +0.004*[#   2]+0.002*[#   7]+0.002*[#  15]+
    |psi|^2 = 0.999
==== e(  13) =    13.84743 eV ==== 
     psi = 0.794*[#   9]+0.140*[#  15]+0.027*[#  16]+0.020*[#   2]+0.012*[#  12]+
          +0.003*[#   7]+0.003*[#   6]+0.001*[#  14]+
    |psi|^2 = 0.999
==== e(  14) =    22.12426 eV ==== 
     psi = 0.862*[#   2]+0.066*[#  15]+0.013*[#   6]+0.012*[#   1]+0.010*[#  16]+
          +0.010*[#  14]+0.004*[#   7]+0.003*[#   9]+
    |psi|^2 = 0.981
==== e(  15) =    23.69965 eV ==== 
     psi = 0.758*[#   8]+0.152*[#  17]+0.009*[#  11]+0.001*[#   5]+0.001*[#  13]+
    |psi|^2 = 0.922

 k =   0.1853179629  0.0000000000  0.1621532176
==== e(   1) =   -73.30850 eV ==== 
     psi = 0.986*[#   1]+0.010*[#   2]+0.002*[#  15]+0.001*[#  16]+
    |psi|^2 = 1.000
==== e(   2) =   -39.20275 eV ==== 
     psi = 0.988*[#   5]+0.010*[#  17]+
    |psi|^2 = 0.998
==== e(   3) =   -39.19457 eV ==== 
     psi = 0.603*[#   3]+0.388*[#   4]+0.002*[#  16]+0.002*[#  15]+0.001*[#  14]+
    |psi|^2 = 0.998
==== e(   4) =   -39.14202 eV ==== 
     psi = 0.603*[#   4]+0.388*[#   3]+0.003*[#  16]+0.002*[#   6]+0.001*[#   7]+
    |psi|^2 = 0.998
==== e(   5) =    -5.67702 eV ==== 
     psi = 0.880*[#  14]+0.044*[#  12]+0.041*[#   6]+0.020*[#   7]+0.009*[#   9]+
          +0.005*[#   2]+
    |psi|^2 = 0.999
==== e(   6) =     7.14476 eV ==== 
     psi = 0.752*[#  17]+0.180*[#   8]+0.040*[#  11]+0.019*[#  13]+0.009*[#   5]+
    |psi|^2 = 1.000
==== e(   7) =     7.26236 eV ==== 
     psi = 0.373*[#  15]+0.357*[#  16]+0.092*[#  10]+0.069*[#   2]+0.040*[#   7]+
          +0.023*[#   9]+0.021*[#  12]+0.020*[#   6]+0.002*[#   4]+0.001*[#   1]+
    |psi|^2 = 0.999
==== e(   8) =     8.23583 eV ==== 
     psi = 0.387*[#  16]+0.373*[#  15]+0.153*[#   9]+0.034*[#  12]+0.032*[#   7]+
          +0.011*[#   6]+0.005*[#  10]+0.001*[#   4]+0.001*[#   2]+
    |psi|^2 = 0.999
==== e(   9) =    11.88664 eV ==== 
     psi = 0.858*[#  10]+0.061*[#  16]+0.037*[#  12]+0.024*[#  15]+0.005*[#  14]+
          +0.004*[#   2]+0.003*[#   9]+0.001*[#   6]+0.001*[#   7]+
    |psi|^2 = 0.993
==== e(  10) =    12.89792 eV ==== 
     psi = 0.785*[#  11]+0.197*[#  13]+0.017*[#  17]+
    |psi|^2 = 0.999
==== e(  11) =    13.05551 eV ==== 
     psi = 0.781*[#  13]+0.168*[#  11]+0.050*[#  17]+
    |psi|^2 = 1.000
==== e(  12) =    13.27555 eV ==== 
     psi = 0.796*[#  12]+0.072*[#   9]+0.049*[#  14]+0.040*[#  16]+0.020*[#  10]+
          +0.010*[#   2]+0.010*[#  15]+0.002*[#   7]+
    |psi|^2 = 0.999
==== e(  13) =    13.83267 eV ==== 
     psi = 0.739*[#   9]+0.124*[#  15]+0.065*[#  12]+0.054*[#  16]+0.007*[#   2]+
          +0.005*[#   7]+0.004*[#   6]+
    |psi|^2 = 0.999
==== e(  14) =    22.01840 eV ==== 
     psi = 0.861*[#   2]+0.047*[#  15]+0.018*[#  16]+0.016*[#   6]+0.014*[#  14]+
          +0.012*[#   1]+0.011*[#   7]+0.001*[#   9]+
    |psi|^2 = 0.981
==== e(  15) =    23.67203 eV ==== 
     psi = 0.759*[#   8]+0.160*[#  17]+0.007*[#  11]+0.002*[#  13]+0.001*[#   5]+
    |psi|^2 = 0.929

 k =   0.1737355902  0.0000000000  0.1737355902
==== e(   1) =   -73.30597 eV ==== 
     psi = 0.986*[#   1]+0.009*[#   2]+0.002*[#  15]+0.002*[#  16]+
    |psi|^2 = 1.000
==== e(   2) =   -39.19441 eV ==== 
     psi = 0.496*[#   3]+0.496*[#   4]+0.002*[#  15]+0.002*[#  16]+0.001*[#  14]+
    |psi|^2 = 0.998
==== e(   3) =   -39.19357 eV ==== 
     psi = 0.988*[#   5]+0.010*[#  17]+
    |psi|^2 = 0.998
==== e(   4) =   -39.12369 eV ==== 
     psi = 0.496*[#   3]+0.496*[#   4]+0.002*[#  15]+0.002*[#  16]+0.002*[#   6]+
          +0.002*[#   7]+
    |psi|^2 = 0.998
==== e(   5) =    -5.67882 eV ==== 
     psi = 0.880*[#  14]+0.040*[#  12]+0.030*[#   6]+0.030*[#   7]+0.013*[#   9]+
          +0.006*[#   2]+
    |psi|^2 = 0.999
==== e(   6) =     7.14349 eV ==== 
     psi = 0.751*[#  17]+0.182*[#   8]+0.029*[#  11]+0.029*[#  13]+0.009*[#   5]+
    |psi|^2 = 1.000
==== e(   7) =     7.25299 eV ==== 
     psi = 0.365*[#  15]+0.365*[#  16]+0.094*[#  10]+0.071*[#   2]+0.030*[#  12]+
          +0.030*[#   6]+0.030*[#   7]+0.010*[#   9]+0.001*[#   3]+0.001*[#   4]+
          +0.001*[#   1]+
    |psi|^2 = 0.999
==== e(   8) =     8.29376 eV ==== 
     psi = 0.380*[#  15]+0.380*[#  16]+0.147*[#   9]+0.049*[#  12]+0.020*[#   6]+
          +0.020*[#   7]+
    |psi|^2 = 0.999
==== e(   9) =    11.84837 eV ==== 
     psi = 0.861*[#  10]+0.040*[#  15]+0.040*[#  16]+0.030*[#  12]+0.010*[#   9]+
          +0.005*[#  14]+0.004*[#   2]+0.002*[#   6]+0.002*[#   7]+
    |psi|^2 = 0.993
==== e(  10) =    12.92109 eV ==== 
     psi = 0.500*[#  11]+0.500*[#  13]+
    |psi|^2 = 1.000
==== e(  11) =    13.05084 eV ==== 
     psi = 0.467*[#  11]+0.467*[#  13]+0.065*[#  17]+
    |psi|^2 = 1.000
==== e(  12) =    13.30838 eV ==== 
     psi = 0.647*[#  12]+0.216*[#   9]+0.049*[#  14]+0.026*[#  15]+0.026*[#  16]+
          +0.020*[#  10]+0.013*[#   2]+
    |psi|^2 = 0.998
==== e(  13) =    13.82803 eV ==== 
     psi = 0.602*[#   9]+0.201*[#  12]+0.092*[#  15]+0.092*[#  16]+0.005*[#   6]+
          +0.005*[#   7]+
    |psi|^2 = 0.999
==== e(  14) =    22.00657 eV ==== 
     psi = 0.861*[#   2]+0.031*[#  15]+0.031*[#  16]+0.015*[#   6]+0.015*[#   7]+
          +0.015*[#  14]+0.012*[#   1]+
    |psi|^2 = 0.980
==== e(  15) =    23.67153 eV ==== 
     psi = 0.759*[#   8]+0.162*[#  17]+0.004*[#  11]+0.004*[#  13]+0.001*[#   5]+
    |psi|^2 = 0.930

 k =   0.1621532176  0.0000000000  0.1621532176
==== e(   1) =   -73.31135 eV ==== 
     psi = 0.985*[#   1]+0.009*[#   2]+0.002*[#  15]+0.002*[#  16]+
    |psi|^2 = 1.000
==== e(   2) =   -39.21766 eV ==== 
     psi = 0.497*[#   3]+0.497*[#   4]+0.002*[#  14]+0.001*[#  15]+0.001*[#  16]+
    |psi|^2 = 0.998
==== e(   3) =   -39.20420 eV ==== 
     psi = 0.988*[#   5]+0.009*[#  17]+
    |psi|^2 = 0.998
==== e(   4) =   -39.14498 eV ==== 
     psi = 0.495*[#   3]+0.495*[#   4]+0.002*[#   6]+0.002*[#   7]+0.001*[#  15]+
          +0.001*[#  16]+
    |psi|^2 = 0.998
==== e(   5) =    -5.66251 eV ==== 
     psi = 0.870*[#  14]+0.041*[#   6]+0.041*[#   7]+0.034*[#  12]+0.011*[#   9]+
          +0.001*[#   2]+
    |psi|^2 = 0.999
==== e(   6) =     6.89994 eV ==== 
     psi = 0.354*[#  15]+0.354*[#  16]+0.090*[#  10]+0.087*[#   2]+0.036*[#  12]+
          +0.030*[#   6]+0.030*[#   7]+0.012*[#   9]+0.002*[#   1]+0.001*[#   3]+
          +0.001*[#   4]+
    |psi|^2 = 0.999
==== e(   7) =     7.23484 eV ==== 
     psi = 0.750*[#  17]+0.164*[#   8]+0.039*[#  11]+0.039*[#  13]+0.008*[#   5]+
    |psi|^2 = 0.999
==== e(   8) =     8.13356 eV ==== 
     psi = 0.367*[#  15]+0.367*[#  16]+0.173*[#   9]+0.058*[#  12]+0.017*[#   6]+
          +0.017*[#   7]+
    |psi|^2 = 0.999
==== e(   9) =    12.11617 eV ==== 
     psi = 0.847*[#  10]+0.048*[#  12]+0.035*[#  15]+0.035*[#  16]+0.016*[#   9]+
          +0.006*[#  14]+0.003*[#   2]+0.002*[#   6]+0.002*[#   7]+
    |psi|^2 = 0.995
==== e(  10) =    12.85553 eV ==== 
     psi = 0.500*[#  11]+0.500*[#  13]+
    |psi|^2 = 0.999
==== e(  11) =    13.02645 eV ==== 
     psi = 0.455*[#  11]+0.455*[#  13]+0.088*[#  17]+
    |psi|^2 = 0.999
==== e(  12) =    13.32493 eV ==== 
     psi = 0.627*[#  12]+0.209*[#   9]+0.044*[#  14]+0.037*[#  10]+0.031*[#  15]+
          +0.031*[#  16]+0.019*[#   2]+
    |psi|^2 = 0.999
==== e(  13) =    14.13803 eV ==== 
     psi = 0.576*[#   9]+0.192*[#  12]+0.110*[#  15]+0.110*[#  16]+0.005*[#   6]+
          +0.005*[#   7]+
    |psi|^2 = 0.999
==== e(  14) =    22.41161 eV ==== 
     psi = 0.847*[#   2]+0.056*[#  15]+0.056*[#  16]+0.012*[#   1]+0.002*[#  12]+
          +0.001*[#   6]+0.001*[#   7]+0.001*[#  14]+
    |psi|^2 = 0.979
==== e(  15) =    23.22973 eV ==== 
     psi = 0.357*[#   6]+0.357*[#   7]+0.061*[#  14]+0.024*[#  10]+0.015*[#  15]+
          +0.015*[#  16]+0.014*[#   2]+0.002*[#  12]+0.001*[#   1]+
    |psi|^2 = 0.848

 k =   0.1505708449  0.0000000000  0.1505708449
==== e(   1) =   -73.31168 eV ==== 
     psi = 0.981*[#   1]+0.009*[#   2]+0.003*[#   6]+0.003*[#   7]+0.002*[#  15]+
          +0.002*[#  16]+
    |psi|^2 = 1.000
==== e(   2) =   -39.22009 eV ==== 
     psi = 0.497*[#   3]+0.497*[#   4]+0.002*[#  14]+
    |psi|^2 = 0.998
==== e(   3) =   -39.19862 eV ==== 
     psi = 0.989*[#   5]+0.009*[#  17]+
    |psi|^2 = 0.998
==== e(   4) =   -39.14547 eV ==== 
     psi = 0.495*[#   3]+0.495*[#   4]+0.003*[#   6]+0.003*[#   7]+
    |psi|^2 = 0.998
==== e(   5) =    -5.66251 eV ==== 
     psi = 0.854*[#  14]+0.054*[#   6]+0.054*[#   7]+0.027*[#  12]+0.009*[#   9]+
          +0.001*[#   3]+0.001*[#   4]+
    |psi|^2 = 0.999
==== e(   6) =     6.61758 eV ==== 
     psi = 0.345*[#  15]+0.345*[#  16]+0.100*[#   2]+0.085*[#  10]+0.042*[#  12]+
          +0.031*[#   6]+0.031*[#   7]+0.014*[#   9]+0.003*[#   1]+0.001*[#  14]+
          +0.001*[#   3]+0.001*[#   4]+
    |psi|^2 = 0.999
==== e(   7) =     7.37790 eV ==== 
     psi = 0.748*[#  17]+0.144*[#   8]+0.050*[#  11]+0.050*[#  13]+0.007*[#   5]+
    |psi|^2 = 0.999
==== e(   8) =     8.01262 eV ==== 
     psi = 0.356*[#  15]+0.356*[#  16]+0.194*[#   9]+0.065*[#  12]+0.013*[#   6]+
          +0.013*[#   7]+
    |psi|^2 = 0.999
==== e(   9) =    12.35589 eV ==== 
     psi = 0.825*[#  10]+0.075*[#  12]+0.029*[#  15]+0.029*[#  16]+0.025*[#   9]+
          +0.008*[#  14]+0.003*[#   6]+0.003*[#   7]+0.002*[#   2]+
    |psi|^2 = 0.996
==== e(  10) =    12.77995 eV ==== 
     psi = 0.500*[#  11]+0.500*[#  13]+
    |psi|^2 = 0.999
==== e(  11) =    12.99280 eV ==== 
     psi = 0.443*[#  11]+0.443*[#  13]+0.113*[#  17]+
    |psi|^2 = 0.999
==== e(  12) =    13.32321 eV ==== 
     psi = 0.598*[#  12]+0.199*[#   9]+0.066*[#  10]+0.039*[#  14]+0.034*[#  15]+
          +0.034*[#  16]+0.025*[#   2]+
    |psi|^2 = 0.999
==== e(  13) =    14.41155 eV ==== 
     psi = 0.556*[#   9]+0.185*[#  12]+0.125*[#  15]+0.125*[#  16]+0.004*[#   6]+
          +0.004*[#   7]+
    |psi|^2 = 0.999
==== e(  14) =    22.26067 eV ==== 
     psi = 0.382*[#   2]+0.169*[#   6]+0.169*[#   7]+0.082*[#  15]+0.082*[#  16]+
          +0.034*[#  14]+0.015*[#  10]+0.007*[#  12]+0.002*[#   9]+0.002*[#   1]+
    |psi|^2 = 0.944
==== e(  15) =    23.30149 eV ==== 
     psi = 0.461*[#   2]+0.192*[#   6]+0.192*[#   7]+0.046*[#  14]+0.014*[#   1]+
          +0.009*[#  10]+0.003*[#  15]+0.003*[#  16]+
    |psi|^2 = 0.919

 k =   0.1389884722  0.0000000000  0.1389884722
==== e(   1) =   -73.31343 eV ==== 
     psi = 0.973*[#   1]+0.008*[#   2]+0.007*[#   6]+0.007*[#   7]+0.003*[#  15]+
          +0.003*[#  16]+
    |psi|^2 = 1.000
==== e(   2) =   -39.23732 eV ==== 
     psi = 0.496*[#   3]+0.496*[#   4]+0.001*[#  14]+0.001*[#   6]+0.001*[#   7]+
    |psi|^2 = 0.998
==== e(   3) =   -39.19166 eV ==== 
     psi = 0.989*[#   5]+0.008*[#  17]+
    |psi|^2 = 0.998
==== e(   4) =   -39.14769 eV ==== 
     psi = 0.494*[#   3]+0.494*[#   4]+0.004*[#   6]+0.004*[#   7]+
    |psi|^2 = 0.999
==== e(   5) =    -5.68563 eV ==== 
     psi = 0.831*[#  14]+0.067*[#   6]+0.067*[#   7]+0.021*[#  12]+0.007*[#   9]+
          +0.002*[#   2]+0.002*[#   3]+0.002*[#   4]+
    |psi|^2 = 0.999
==== e(   6) =     6.42209 eV ==== 
     psi = 0.337*[#  15]+0.337*[#  16]+0.108*[#   2]+0.079*[#  10]+0.047*[#  12]+
          +0.032*[#   6]+0.032*[#   7]+0.016*[#   9]+0.005*[#  14]+0.004*[#   1]+
          +0.001*[#   3]+0.001*[#   4]+
    |psi|^2 = 0.999
==== e(   7) =     7.54317 eV ==== 
     psi = 0.746*[#  17]+0.126*[#   8]+0.061*[#  11]+0.061*[#  13]+0.006*[#   5]+
    |psi|^2 = 0.999
==== e(   8) =     7.93134 eV ==== 
     psi = 0.349*[#  15]+0.349*[#  16]+0.210*[#   9]+0.070*[#  12]+0.010*[#   6]+
          +0.010*[#   7]+
    |psi|^2 = 0.999
==== e(   9) =    12.54848 eV ==== 
     psi = 0.785*[#  10]+0.117*[#  12]+0.039*[#   9]+0.021*[#  15]+0.021*[#  16]+
          +0.009*[#  14]+0.002*[#   6]+0.002*[#   7]+
    |psi|^2 = 0.998
==== e(  10) =    12.69562 eV ==== 
     psi = 0.499*[#  11]+0.499*[#  13]+
    |psi|^2 = 0.999
==== e(  11) =    12.94569 eV ==== 
     psi = 0.431*[#  11]+0.431*[#  13]+0.137*[#  17]+
    |psi|^2 = 0.999
==== e(  12) =    13.30611 eV ==== 
     psi = 0.555*[#  12]+0.185*[#   9]+0.116*[#  10]+0.038*[#  15]+0.038*[#  16]+
          +0.035*[#  14]+0.030*[#   2]+0.001*[#   6]+0.001*[#   7]+
    |psi|^2 = 0.999
==== e(  13) =    14.62440 eV ==== 
     psi = 0.539*[#   9]+0.180*[#  12]+0.137*[#  15]+0.137*[#  16]+0.003*[#   6]+
          +0.003*[#   7]+
    |psi|^2 = 0.999
==== e(  14) =    21.59266 eV ==== 
     psi = 0.229*[#   2]+0.224*[#   6]+0.224*[#   7]+0.087*[#  15]+0.087*[#  16]+
          +0.074*[#  14]+0.016*[#  10]+0.009*[#  12]+0.003*[#   9]+
    |psi|^2 = 0.953
==== e(  15) =    23.85675 eV ==== 
     psi = 0.594*[#   2]+0.127*[#   6]+0.127*[#   7]+0.029*[#  14]+0.020*[#   1]+
          +0.011*[#  15]+0.011*[#  16]+0.004*[#  10]+
    |psi|^2 = 0.924

 k =   0.1274060995  0.0000000000  0.1274060995
==== e(   1) =   -73.30881 eV ==== 
     psi = 0.962*[#   1]+0.012*[#   6]+0.012*[#   7]+0.008*[#   2]+0.002*[#  15]+
          +0.002*[#  16]+
    |psi|^2 = 1.000
==== e(   2) =   -39.20664 eV ==== 
     psi = 0.495*[#   3]+0.495*[#   4]+0.003*[#   6]+0.003*[#   7]+0.001*[#   2]+
          +0.001*[#  14]+
    |psi|^2 = 0.998
==== e(   3) =   -39.16793 eV ==== 
     psi = 0.988*[#   5]+0.007*[#  17]+0.002*[#   8]+
    |psi|^2 = 0.998
==== e(   4) =   -39.13306 eV ==== 
     psi = 0.494*[#   3]+0.494*[#   4]+0.005*[#   6]+0.005*[#   7]+
    |psi|^2 = 0.999
==== e(   5) =    -5.73572 eV ==== 
     psi = 0.802*[#  14]+0.082*[#   6]+0.082*[#   7]+0.016*[#  12]+0.007*[#   2]+
          +0.005*[#   9]+0.002*[#   3]+0.002*[#   4]+0.002*[#   1]+
    |psi|^2 = 0.999
==== e(   6) =     6.32049 eV ==== 
     psi = 0.331*[#  15]+0.331*[#  16]+0.115*[#   2]+0.075*[#  10]+0.050*[#  12]+
          +0.031*[#   6]+0.031*[#   7]+0.017*[#   9]+0.012*[#  14]+0.005*[#   1]+
    |psi|^2 = 0.999
==== e(   7) =     7.72951 eV ==== 
     psi = 0.742*[#  17]+0.110*[#   8]+0.071*[#  11]+0.071*[#  13]+0.005*[#   5]+
    |psi|^2 = 0.999
==== e(   8) =     7.90893 eV ==== 
     psi = 0.344*[#  15]+0.344*[#  16]+0.222*[#   9]+0.074*[#  12]+0.007*[#   6]+
          +0.007*[#   7]+
    |psi|^2 = 0.999
==== e(   9) =    12.60423 eV ==== 
     psi = 0.499*[#  11]+0.499*[#  13]+
    |psi|^2 = 0.999
==== e(  10) =    12.68008 eV ==== 
     psi = 0.717*[#  10]+0.180*[#  12]+0.060*[#   9]+0.014*[#  15]+0.014*[#  16]+
          +0.011*[#  14]+0.002*[#   6]+0.002*[#   7]+
    |psi|^2 = 0.999
==== e(  11) =    12.88417 eV ==== 
     psi = 0.420*[#  11]+0.420*[#  13]+0.159*[#  17]+
    |psi|^2 = 0.998
==== e(  12) =    13.27573 eV ==== 
     psi = 0.491*[#  12]+0.194*[#  10]+0.164*[#   9]+0.041*[#  15]+0.041*[#  16]+
          +0.033*[#   2]+0.031*[#  14]+0.002*[#   6]+0.002*[#   7]+
    |psi|^2 = 0.999
==== e(  13) =    14.76754 eV ==== 
     psi = 0.527*[#   9]+0.176*[#  12]+0.147*[#  15]+0.147*[#  16]+0.001*[#   6]+
          +0.001*[#   7]+
    |psi|^2 = 0.998
==== e(  14) =    20.91808 eV ==== 
     psi = 0.226*[#   6]+0.226*[#   7]+0.182*[#   2]+0.106*[#  14]+0.096*[#  15]+
          +0.096*[#  16]+0.013*[#  10]+0.012*[#  12]+0.004*[#   9]+0.002*[#   1]+
    |psi|^2 = 0.964
==== e(  15) =    24.19584 eV ==== 
     psi = 0.750*[#   8]+0.077*[#  17]+0.009*[#  11]+0.009*[#  13]+0.006*[#   5]+
    |psi|^2 = 0.851

 k =   0.1158237268  0.0000000000  0.1158237268
==== e(   1) =   -73.30946 eV ==== 
     psi = 0.949*[#   1]+0.019*[#   6]+0.019*[#   7]+0.008*[#   2]+0.002*[#  15]+
          +0.002*[#  16]+
    |psi|^2 = 1.000
==== e(   2) =   -39.20327 eV ==== 
     psi = 0.493*[#   3]+0.493*[#   4]+0.004*[#   6]+0.004*[#   7]+0.002*[#   2]+
    |psi|^2 = 0.998
==== e(   3) =   -39.16345 eV ==== 
     psi = 0.988*[#   5]+0.007*[#  17]+0.003*[#   8]+
    |psi|^2 = 0.998
==== e(   4) =   -39.13286 eV ==== 
     psi = 0.493*[#   3]+0.493*[#   4]+0.006*[#   6]+0.006*[#   7]+
    |psi|^2 = 0.999
==== e(   5) =    -5.81276 eV ==== 
     psi = 0.770*[#  14]+0.095*[#   6]+0.095*[#   7]+0.016*[#   2]+0.011*[#  12]+
          +0.004*[#   1]+0.004*[#   9]+0.003*[#   3]+0.003*[#   4]+
    |psi|^2 = 1.000
==== e(   6) =     6.32792 eV ==== 
     psi = 0.328*[#  15]+0.328*[#  16]+0.116*[#   2]+0.071*[#  10]+0.053*[#  12]+
          +0.029*[#   6]+0.029*[#   7]+0.020*[#  14]+0.018*[#   9]+0.006*[#   1]+
    |psi|^2 = 0.999
==== e(   7) =     7.92201 eV ==== 
     psi = 0.341*[#  15]+0.341*[#  16]+0.230*[#   9]+0.077*[#  12]+0.005*[#   6]+
          +0.005*[#   7]+
    |psi|^2 = 0.998
==== e(   8) =     7.93505 eV ==== 
     psi = 0.741*[#  17]+0.095*[#   8]+0.079*[#  11]+0.079*[#  13]+0.004*[#   5]+
    |psi|^2 = 0.999
==== e(   9) =    12.50781 eV ==== 
     psi = 0.499*[#  11]+0.499*[#  13]+
    |psi|^2 = 0.998
==== e(  10) =    12.74201 eV ==== 
     psi = 0.626*[#  10]+0.257*[#  12]+0.086*[#   9]+0.012*[#  14]+0.007*[#  15]+
          +0.007*[#  16]+0.001*[#   6]+0.001*[#   7]+0.001*[#   2]+
    |psi|^2 = 0.999
==== e(  11) =    12.80696 eV ==== 
     psi = 0.411*[#  11]+0.411*[#  13]+0.177*[#  17]+
    |psi|^2 = 0.998
==== e(  12) =    13.23438 eV ==== 
     psi = 0.415*[#  12]+0.294*[#  10]+0.138*[#   9]+0.043*[#  15]+0.043*[#  16]+
          +0.033*[#   2]+0.028*[#  14]+0.002*[#   6]+0.002*[#   7]+
    |psi|^2 = 0.999
==== e(  13) =    14.81131 eV ==== 
     psi = 0.519*[#   9]+0.173*[#  12]+0.153*[#  15]+0.153*[#  16]+
    |psi|^2 = 0.998
==== e(  14) =    20.23606 eV ==== 
     psi = 0.211*[#   6]+0.211*[#   7]+0.169*[#   2]+0.136*[#  14]+0.105*[#  15]+
          +0.105*[#  16]+0.014*[#  12]+0.008*[#  10]+0.005*[#   1]+0.005*[#   9]+
          +0.002*[#   3]+0.002*[#   4]+
    |psi|^2 = 0.974
==== e(  15) =    24.44029 eV ==== 
     psi = 0.731*[#   8]+0.060*[#  17]+0.009*[#  11]+0.009*[#  13]+0.007*[#   5]+
    |psi|^2 = 0.818

 k =   0.1042413541  0.0000000000  0.1042413541
==== e(   1) =   -73.30517 eV ==== 
     psi = 0.935*[#   1]+0.027*[#   6]+0.027*[#   7]+0.007*[#   2]+0.002*[#  15]+
          +0.002*[#  16]+
    |psi|^2 = 1.000
==== e(   2) =   -39.18579 eV ==== 
     psi = 0.493*[#   3]+0.493*[#   4]+0.005*[#   6]+0.005*[#   7]+0.002*[#   2]+
    |psi|^2 = 0.998
==== e(   3) =   -39.13587 eV ==== 
     psi = 0.987*[#   5]+0.006*[#  17]+0.005*[#   8]+
    |psi|^2 = 0.998
==== e(   4) =   -39.11409 eV ==== 
     psi = 0.492*[#   3]+0.492*[#   4]+0.007*[#   6]+0.007*[#   7]+
    |psi|^2 = 0.999
==== e(   5) =    -5.91488 eV ==== 
     psi = 0.737*[#  14]+0.107*[#   6]+0.107*[#   7]+0.027*[#   2]+0.007*[#  12]+
          +0.006*[#   1]+0.003*[#   3]+0.003*[#   4]+0.002*[#   9]+
    |psi|^2 = 1.000
==== e(   6) =     6.45691 eV ==== 
     psi = 0.328*[#  15]+0.328*[#  16]+0.114*[#   2]+0.068*[#  10]+0.054*[#  12]+
          +0.030*[#  14]+0.026*[#   6]+0.026*[#   7]+0.018*[#   9]+0.007*[#   1]+
    |psi|^2 = 0.998
==== e(   7) =     7.99574 eV ==== 
     psi = 0.340*[#  15]+0.340*[#  16]+0.234*[#   9]+0.078*[#  12]+0.003*[#   6]+
          +0.003*[#   7]+
    |psi|^2 = 0.998
==== e(   8) =     8.20133 eV ==== 
     psi = 0.741*[#  17]+0.087*[#  11]+0.087*[#  13]+0.080*[#   8]+0.003*[#   5]+
    |psi|^2 = 0.998
==== e(   9) =    12.40875 eV ==== 
     psi = 0.499*[#  11]+0.499*[#  13]+
    |psi|^2 = 0.998
==== e(  10) =    12.72382 eV ==== 
     psi = 0.403*[#  11]+0.403*[#  13]+0.192*[#  17]+
    |psi|^2 = 0.997
==== e(  11) =    12.74088 eV ==== 
     psi = 0.546*[#  10]+0.322*[#  12]+0.107*[#   9]+0.012*[#  14]+0.003*[#   2]+
          +0.003*[#  15]+0.003*[#  16]+
    |psi|^2 = 0.999
==== e(  12) =    13.17788 eV ==== 
     psi = 0.382*[#  10]+0.350*[#  12]+0.117*[#   9]+0.042*[#  15]+0.042*[#  16]+
          +0.031*[#   2]+0.027*[#  14]+0.004*[#   6]+0.004*[#   7]+
    |psi|^2 = 0.999
==== e(  13) =    14.76785 eV ==== 
     psi = 0.514*[#   9]+0.171*[#  12]+0.156*[#  15]+0.156*[#  16]+
    |psi|^2 = 0.998
==== e(  14) =    19.56434 eV ==== 
     psi = 0.193*[#   6]+0.193*[#   7]+0.169*[#   2]+0.165*[#  14]+0.113*[#  15]+
          +0.113*[#  16]+0.015*[#  12]+0.008*[#   1]+0.005*[#   9]+0.004*[#  10]+
          +0.002*[#   3]+0.002*[#   4]+
    |psi|^2 = 0.981
==== e(  15) =    24.75341 eV ==== 
     psi = 0.698*[#   8]+0.046*[#  17]+0.010*[#  11]+0.010*[#  13]+0.008*[#   5]+
    |psi|^2 = 0.772

 k =   0.0926589815  0.0000000000  0.0926589815
==== e(   1) =   -73.30475 eV ==== 
     psi = 0.922*[#   1]+0.034*[#   6]+0.034*[#   7]+0.006*[#   2]+0.002*[#  15]+
          +0.002*[#  16]+
    |psi|^2 = 1.000
==== e(   2) =   -39.16753 eV ==== 
     psi = 0.493*[#   3]+0.493*[#   4]+0.005*[#   6]+0.005*[#   7]+0.002*[#   2]+
    |psi|^2 = 0.998
==== e(   3) =   -39.13565 eV ==== 
     psi = 0.986*[#   5]+0.006*[#   8]+0.005*[#  17]+
    |psi|^2 = 0.998
==== e(   4) =   -39.10976 eV ==== 
     psi = 0.492*[#   3]+0.492*[#   4]+0.008*[#   6]+0.008*[#   7]+
    |psi|^2 = 0.999
==== e(   5) =    -6.04499 eV ==== 
     psi = 0.704*[#  14]+0.116*[#   6]+0.116*[#   7]+0.043*[#   2]+0.009*[#   1]+
          +0.005*[#  12]+0.003*[#   3]+0.003*[#   4]+0.002*[#   9]+
    |psi|^2 = 1.000
==== e(   6) =     6.65555 eV ==== 
     psi = 0.330*[#  15]+0.330*[#  16]+0.113*[#   2]+0.065*[#  10]+0.054*[#  12]+
          +0.040*[#  14]+0.021*[#   6]+0.021*[#   7]+0.018*[#   9]+0.007*[#   1]+
    |psi|^2 = 0.998
==== e(   7) =     8.11468 eV ==== 
     psi = 0.342*[#  15]+0.342*[#  16]+0.234*[#   9]+0.078*[#  12]+0.001*[#   6]+
          +0.001*[#   7]+
    |psi|^2 = 0.998
==== e(   8) =     8.43225 eV ==== 
     psi = 0.747*[#  17]+0.090*[#  11]+0.090*[#  13]+0.068*[#   8]+0.003*[#   5]+
    |psi|^2 = 0.998
==== e(   9) =    12.30969 eV ==== 
     psi = 0.499*[#  11]+0.499*[#  13]+
    |psi|^2 = 0.997
==== e(  10) =    12.61721 eV ==== 
     psi = 0.399*[#  11]+0.399*[#  13]+0.198*[#  17]+
    |psi|^2 = 0.997
==== e(  11) =    12.69274 eV ==== 
     psi = 0.513*[#  10]+0.350*[#  12]+0.117*[#   9]+0.010*[#  14]+0.005*[#   2]+
          +0.002*[#  15]+0.002*[#  16]+
    |psi|^2 = 0.999
==== e(  12) =    13.08465 eV ==== 
     psi = 0.420*[#  10]+0.324*[#  12]+0.108*[#   9]+0.039*[#  15]+0.039*[#  16]+
          +0.029*[#   2]+0.028*[#  14]+0.005*[#   6]+0.005*[#   7]+
    |psi|^2 = 0.998
==== e(  13) =    14.62545 eV ==== 
     psi = 0.514*[#   9]+0.171*[#  12]+0.156*[#  15]+0.156*[#  16]+
    |psi|^2 = 0.998
==== e(  14) =    18.89738 eV ==== 
     psi = 0.192*[#  14]+0.176*[#   6]+0.176*[#   7]+0.171*[#   2]+0.116*[#  15]+
          +0.116*[#  16]+0.016*[#  12]+0.012*[#   1]+0.005*[#   9]+0.003*[#   3]+
          +0.003*[#   4]+
    |psi|^2 = 0.986
==== e(  15) =    25.12836 eV ==== 
     psi = 0.655*[#   8]+0.034*[#  17]+0.010*[#  11]+0.010*[#  13]+0.009*[#   5]+
    |psi|^2 = 0.718

 k =   0.0810766088  0.0000000000  0.0810766088
==== e(   1) =   -73.30700 eV ==== 
     psi = 0.912*[#   1]+0.040*[#   6]+0.040*[#   7]+0.005*[#   2]+0.001*[#  15]+
          +0.001*[#  16]+
    |psi|^2 = 1.000
==== e(   2) =   -39.17472 eV ==== 
     psi = 0.493*[#   3]+0.493*[#   4]+0.004*[#   6]+0.004*[#   7]+0.003*[#   2]+
    |psi|^2 = 0.998
==== e(   3) =   -39.12472 eV ==== 
     psi = 0.986*[#   5]+0.008*[#   8]+0.005*[#  17]+
    |psi|^2 = 0.998
==== e(   4) =   -39.10907 eV ==== 
     psi = 0.491*[#   3]+0.491*[#   4]+0.008*[#   6]+0.008*[#   7]+
    |psi|^2 = 0.999
==== e(   5) =    -6.18443 eV ==== 
     psi = 0.675*[#  14]+0.121*[#   6]+0.121*[#   7]+0.062*[#   2]+0.011*[#   1]+
          +0.003*[#   3]+0.003*[#   4]+0.003*[#  12]+
    |psi|^2 = 1.000
==== e(   6) =     6.98391 eV ==== 
     psi = 0.336*[#  15]+0.336*[#  16]+0.107*[#   2]+0.063*[#  10]+0.053*[#  12]+
          +0.046*[#  14]+0.018*[#   9]+0.016*[#   6]+0.016*[#   7]+0.007*[#   1]+
    |psi|^2 = 0.998
==== e(   7) =     8.27767 eV ==== 
     psi = 0.346*[#  15]+0.346*[#  16]+0.229*[#   9]+0.076*[#  12]+
    |psi|^2 = 0.998
==== e(   8) =     8.68700 eV ==== 
     psi = 0.759*[#  17]+0.090*[#  11]+0.090*[#  13]+0.057*[#   8]+0.002*[#   5]+
    |psi|^2 = 0.998
==== e(   9) =    12.21344 eV ==== 
     psi = 0.498*[#  11]+0.498*[#  13]+
    |psi|^2 = 0.997
==== e(  10) =    12.50361 eV ==== 
     psi = 0.399*[#  11]+0.399*[#  13]+0.197*[#  17]+
    |psi|^2 = 0.997
==== e(  11) =    12.61006 eV ==== 
     psi = 0.539*[#  10]+0.335*[#  12]+0.112*[#   9]+0.006*[#  14]+0.004*[#   2]+
          +0.002*[#  15]+0.002*[#  16]+
    |psi|^2 = 0.999
==== e(  12) =    12.97512 eV ==== 
     psi = 0.396*[#  10]+0.342*[#  12]+0.114*[#   9]+0.036*[#  15]+0.036*[#  16]+
          +0.031*[#  14]+0.028*[#   2]+0.006*[#   6]+0.006*[#   7]+0.001*[#   1]+
    |psi|^2 = 0.998
==== e(  13) =    14.39350 eV ==== 
     psi = 0.519*[#   9]+0.173*[#  12]+0.152*[#  15]+0.152*[#  16]+
    |psi|^2 = 0.998
==== e(  14) =    18.15419 eV ==== 
     psi = 0.218*[#  14]+0.189*[#   2]+0.157*[#   6]+0.157*[#   7]+0.115*[#  15]+
          +0.115*[#  16]+0.015*[#  12]+0.015*[#   1]+0.005*[#   9]+0.003*[#   3]+
          +0.003*[#   4]+
    |psi|^2 = 0.990
==== e(  15) =    25.57350 eV ==== 
     psi = 0.594*[#   8]+0.024*[#  17]+0.010*[#   5]+0.010*[#  11]+0.010*[#  13]+
    |psi|^2 = 0.647

 k =   0.0694942361  0.0000000000  0.0694942361
==== e(   1) =   -73.30826 eV ==== 
     psi = 0.906*[#   1]+0.044*[#   6]+0.044*[#   7]+0.003*[#   2]+0.001*[#  15]+
          +0.001*[#  16]+
    |psi|^2 = 1.000
==== e(   2) =   -39.17179 eV ==== 
     psi = 0.495*[#   3]+0.495*[#   4]+0.004*[#   2]+0.002*[#   6]+0.002*[#   7]+
    |psi|^2 = 0.998
==== e(   3) =   -39.12223 eV ==== 
     psi = 0.984*[#   5]+0.010*[#   8]+0.004*[#  17]+
    |psi|^2 = 0.998
==== e(   4) =   -39.10854 eV ==== 
     psi = 0.490*[#   3]+0.490*[#   4]+0.009*[#   6]+0.009*[#   7]+
    |psi|^2 = 0.999
==== e(   5) =    -6.32677 eV ==== 
     psi = 0.652*[#  14]+0.121*[#   6]+0.121*[#   7]+0.086*[#   2]+0.013*[#   1]+
          +0.002*[#   3]+0.002*[#   4]+0.001*[#  12]+
    |psi|^2 = 1.000
==== e(   6) =     7.37527 eV ==== 
     psi = 0.345*[#  15]+0.345*[#  16]+0.102*[#   2]+0.060*[#  10]+0.051*[#  12]+
          +0.050*[#  14]+0.017*[#   9]+0.011*[#   6]+0.011*[#   7]+0.006*[#   1]+
    |psi|^2 = 0.998
==== e(   7) =     8.48719 eV ==== 
     psi = 0.353*[#  15]+0.353*[#  16]+0.218*[#   9]+0.073*[#  12]+
    |psi|^2 = 0.998
==== e(   8) =     8.92740 eV ==== 
     psi = 0.778*[#  17]+0.086*[#  11]+0.086*[#  13]+0.046*[#   8]+0.002*[#   5]+
    |psi|^2 = 0.998
==== e(   9) =    12.12286 eV ==== 
     psi = 0.498*[#  11]+0.498*[#  13]+
    |psi|^2 = 0.996
==== e(  10) =    12.37977 eV ==== 
     psi = 0.405*[#  11]+0.405*[#  13]+0.185*[#  17]+0.001*[#   8]+
    |psi|^2 = 0.996
==== e(  11) =    12.50150 eV ==== 
     psi = 0.616*[#  10]+0.280*[#  12]+0.093*[#   9]+0.002*[#   2]+0.002*[#  15]+
          +0.002*[#  16]+0.002*[#  14]+
    |psi|^2 = 0.998
==== e(  12) =    12.84710 eV ==== 
     psi = 0.401*[#  12]+0.321*[#  10]+0.134*[#   9]+0.034*[#  15]+0.034*[#  16]+
          +0.032*[#  14]+0.028*[#   2]+0.006*[#   6]+0.006*[#   7]+0.001*[#   1]+
    |psi|^2 = 0.998
==== e(  13) =    14.09244 eV ==== 
     psi = 0.530*[#   9]+0.177*[#  12]+0.144*[#  15]+0.144*[#  16]+0.001*[#   6]+
          +0.001*[#   7]+
    |psi|^2 = 0.998
==== e(  14) =    17.49381 eV ==== 
     psi = 0.243*[#  14]+0.216*[#   2]+0.139*[#   6]+0.139*[#   7]+0.109*[#  15]+
          +0.109*[#  16]+0.016*[#   1]+0.014*[#  12]+0.005*[#   9]+0.002*[#   3]+
          +0.002*[#   4]+
    |psi|^2 = 0.993
==== e(  15) =    26.07835 eV ==== 
     psi = 0.519*[#   8]+0.016*[#  17]+0.010*[#   5]+0.008*[#  11]+0.008*[#  13]+
    |psi|^2 = 0.562

 k =   0.0579118634  0.0000000000  0.0579118634
==== e(   1) =   -73.30646 eV ==== 
     psi = 0.905*[#   1]+0.046*[#   6]+0.046*[#   7]+
    |psi|^2 = 1.000
==== e(   2) =   -39.13743 eV ==== 
     psi = 0.495*[#   3]+0.495*[#   4]+0.004*[#   2]+
    |psi|^2 = 0.998
==== e(   3) =   -39.11648 eV ==== 
     psi = 0.983*[#   5]+0.012*[#   8]+0.004*[#  17]+
    |psi|^2 = 0.998
==== e(   4) =   -39.10604 eV ==== 
     psi = 0.490*[#   3]+0.490*[#   4]+0.009*[#   6]+0.009*[#   7]+
    |psi|^2 = 0.999
==== e(   5) =    -6.46454 eV ==== 
[...]
    |psi|^2 = 0.999
==== e(  12) =    14.42239 eV ==== 
     psi = 0.505*[#  12]+0.168*[#   9]+0.162*[#  17]+0.043*[#  15]+0.043*[#  16]+
          +0.020*[#  10]+0.020*[#  14]+0.013*[#   8]+0.008*[#  11]+0.008*[#  13]+
          +0.002*[#   6]+0.002*[#   7]+0.001*[#   2]+
    |psi|^2 = 0.997
==== e(  13) =    14.71558 eV ==== 
     psi = 0.510*[#   9]+0.170*[#  12]+0.151*[#  15]+0.151*[#  16]+0.007*[#  11]+
          +0.007*[#  13]+0.002*[#   6]+0.002*[#   7]+
    |psi|^2 = 0.998
==== e(  14) =    20.22175 eV ==== 
     psi = 0.238*[#   8]+0.230*[#   6]+0.230*[#   7]+0.154*[#  14]+0.030*[#  17]+
          +0.007*[#  12]+0.006*[#  15]+0.006*[#  16]+0.006*[#  10]+0.002*[#   9]+
          +0.002*[#   3]+0.002*[#   4]+0.002*[#   5]+0.001*[#  11]+0.001*[#  13]+
    |psi|^2 = 0.918
==== e(  15) =    22.83258 eV ==== 
     psi = 0.714*[#   2]+0.065*[#  15]+0.065*[#  16]+0.060*[#  17]+0.031*[#   8]+
          +0.009*[#   6]+0.009*[#   7]+0.007*[#   1]+0.003*[#  10]+0.002*[#  11]+
          +0.002*[#  13]+
    |psi|^2 = 0.970

 k =   0.1415623328  0.0643465149  0.1415623328
==== e(   1) =   -73.30579 eV ==== 
     psi = 0.983*[#   1]+0.005*[#   2]+0.003*[#  15]+0.003*[#  16]+0.002*[#   8]+
          +0.002*[#  17]+
    |psi|^2 = 1.000
==== e(   2) =   -39.21491 eV ==== 
     psi = 0.354*[#   3]+0.354*[#   4]+0.277*[#   5]+0.004*[#   8]+0.002*[#   6]+
          +0.002*[#   7]+0.001*[#  14]+
    |psi|^2 = 0.998
==== e(   3) =   -39.14450 eV ==== 
     psi = 0.711*[#   5]+0.140*[#   3]+0.140*[#   4]+0.003*[#  17]+0.002*[#   8]+
          +0.001*[#   6]+0.001*[#   7]+
    |psi|^2 = 0.998
==== e(   4) =   -39.12043 eV ==== 
     psi = 0.495*[#   3]+0.495*[#   4]+0.004*[#   6]+0.004*[#   7]+
    |psi|^2 = 0.998
==== e(   5) =    -5.66829 eV ==== 
     psi = 0.814*[#  14]+0.062*[#   6]+0.062*[#   7]+0.041*[#   8]+0.012*[#  12]+
          +0.004*[#   9]+0.002*[#   3]+0.002*[#   4]+0.002*[#   5]+
    |psi|^2 = 1.000
==== e(   6) =     5.88653 eV ==== 
     psi = 0.231*[#  15]+0.231*[#  16]+0.207*[#  17]+0.152*[#   2]+0.050*[#  10]+
          +0.035*[#  11]+0.035*[#  13]+0.032*[#   8]+0.009*[#   6]+0.009*[#   7]+
          +0.004*[#   1]+0.001*[#  12]+
    |psi|^2 = 1.000
==== e(   7) =     7.68126 eV ==== 
     psi = 0.476*[#  17]+0.148*[#  12]+0.107*[#  15]+0.107*[#  16]+0.049*[#   9]+
          +0.043*[#   8]+0.029*[#  10]+0.012*[#  11]+0.012*[#  13]+0.005*[#   6]+
          +0.005*[#   7]+0.002*[#   5]+
    |psi|^2 = 0.998
==== e(   8) =     7.91393 eV ==== 
     psi = 0.342*[#  15]+0.342*[#  16]+0.206*[#   9]+0.069*[#  12]+0.013*[#  11]+
          +0.013*[#  13]+0.007*[#   6]+0.007*[#   7]+
    |psi|^2 = 0.998
==== e(   9) =    12.54278 eV ==== 
     psi = 0.790*[#  10]+0.056*[#  12]+0.047*[#  11]+0.047*[#  13]+0.019*[#   9]+
          +0.013*[#  15]+0.013*[#  16]+0.005*[#  14]+0.003*[#   6]+0.003*[#   7]+
          +0.001*[#   8]+
    |psi|^2 = 0.998
==== e(  10) =    12.78973 eV ==== 
     psi = 0.481*[#  11]+0.481*[#  13]+0.023*[#   9]+0.008*[#  12]+0.003*[#  15]+
          +0.003*[#  16]+
    |psi|^2 = 1.000
==== e(  11) =    12.98542 eV ==== 
     psi = 0.387*[#  11]+0.387*[#  13]+0.090*[#  10]+0.052*[#  17]+0.030*[#  15]+
          +0.030*[#  16]+0.010*[#  12]+0.009*[#   2]+0.003*[#   9]+
    |psi|^2 = 0.999
==== e(  12) =    14.18030 eV ==== 
     psi = 0.514*[#  12]+0.171*[#   9]+0.135*[#  17]+0.038*[#  15]+0.038*[#  16]+
          +0.028*[#  14]+0.026*[#  10]+0.015*[#   8]+0.013*[#  11]+0.013*[#  13]+
          +0.003*[#   2]+0.002*[#   6]+0.002*[#   7]+
    |psi|^2 = 0.997
==== e(  13) =    14.61445 eV ==== 
     psi = 0.521*[#   9]+0.174*[#  12]+0.143*[#  15]+0.143*[#  16]+0.006*[#  11]+
          +0.006*[#  13]+0.003*[#   6]+0.003*[#   7]+
    |psi|^2 = 0.998
==== e(  14) =    20.78236 eV ==== 
     psi = 0.241*[#   8]+0.228*[#   6]+0.228*[#   7]+0.130*[#  14]+0.044*[#  17]+
          +0.009*[#  10]+0.008*[#  12]+0.008*[#  15]+0.008*[#  16]+0.003*[#   9]+
          +0.002*[#  11]+0.002*[#  13]+0.001*[#   2]+
    |psi|^2 = 0.915
==== e(  15) =    22.80950 eV ==== 
     psi = 0.704*[#   2]+0.067*[#  15]+0.067*[#  16]+0.052*[#  17]+0.037*[#   8]+
          +0.014*[#   6]+0.014*[#   7]+0.007*[#   1]+0.003*[#  10]+0.002*[#  11]+
          +0.002*[#  13]+
    |psi|^2 = 0.969

 k =   0.1479969843  0.0514772119  0.1479969843
==== e(   1) =   -73.30621 eV ==== 
     psi = 0.982*[#   1]+0.006*[#   2]+0.003*[#   8]+0.003*[#  15]+0.003*[#  16]+
          +0.001*[#  17]+
    |psi|^2 = 1.000
==== e(   2) =   -39.21368 eV ==== 
     psi = 0.346*[#   3]+0.346*[#   4]+0.297*[#   5]+0.003*[#   8]+0.001*[#   6]+
          +0.001*[#   7]+0.001*[#  14]+0.001*[#  17]+
    |psi|^2 = 0.998
==== e(   3) =   -39.15382 eV ==== 
     psi = 0.691*[#   5]+0.149*[#   3]+0.149*[#   4]+0.004*[#  17]+0.001*[#   8]+
    |psi|^2 = 0.998
==== e(   4) =   -39.12412 eV ==== 
     psi = 0.495*[#   3]+0.495*[#   4]+0.003*[#   6]+0.003*[#   7]+
    |psi|^2 = 0.998
==== e(   5) =    -5.66630 eV ==== 
     psi = 0.829*[#  14]+0.057*[#   6]+0.057*[#   7]+0.029*[#   8]+0.017*[#  12]+
          +0.006*[#   9]+0.001*[#   3]+0.001*[#   4]+0.001*[#   5]+
    |psi|^2 = 1.000
==== e(   6) =     6.11472 eV ==== 
     psi = 0.237*[#  15]+0.237*[#  16]+0.204*[#  17]+0.132*[#   2]+0.053*[#  10]+
          +0.041*[#   8]+0.030*[#  11]+0.030*[#  13]+0.013*[#   6]+0.013*[#   7]+
          +0.004*[#   1]+0.003*[#  12]+0.001*[#   5]+
    |psi|^2 = 1.000
==== e(   7) =     7.60321 eV ==== 
     psi = 0.494*[#  17]+0.115*[#  12]+0.105*[#  15]+0.105*[#  16]+0.063*[#   8]+
          +0.038*[#   9]+0.030*[#  10]+0.015*[#  11]+0.015*[#  13]+0.007*[#   6]+
          +0.007*[#   7]+0.003*[#   5]+0.002*[#   2]+
    |psi|^2 = 0.998
==== e(   8) =     7.97450 eV ==== 
     psi = 0.348*[#  15]+0.348*[#  16]+0.198*[#   9]+0.066*[#  12]+0.010*[#   6]+
          +0.010*[#   7]+0.009*[#  11]+0.009*[#  13]+
    |psi|^2 = 0.999
==== e(   9) =    12.42747 eV ==== 
     psi = 0.818*[#  10]+0.058*[#  12]+0.023*[#  11]+0.023*[#  13]+0.020*[#  15]+
          +0.020*[#  16]+0.019*[#   9]+0.006*[#  14]+0.003*[#   6]+0.003*[#   7]+
          +0.002*[#   2]+
    |psi|^2 = 0.997
==== e(  10) =    12.80581 eV ==== 
     psi = 0.486*[#  11]+0.486*[#  13]+0.018*[#   9]+0.006*[#  12]+0.002*[#  15]+
          +0.002*[#  16]+
    |psi|^2 = 0.999
==== e(  11) =    12.97786 eV ==== 
     psi = 0.407*[#  11]+0.407*[#  13]+0.054*[#  17]+0.050*[#  10]+0.023*[#  15]+
          +0.023*[#  16]+0.020*[#  12]+0.008*[#   2]+0.007*[#   9]+0.001*[#  14]+
    |psi|^2 = 0.999
==== e(  12) =    13.92393 eV ==== 
     psi = 0.529*[#  12]+0.176*[#   9]+0.104*[#  17]+0.033*[#  15]+0.033*[#  16]+
          +0.033*[#  14]+0.030*[#  10]+0.018*[#  11]+0.018*[#  13]+0.014*[#   8]+
          +0.006*[#   2]+0.002*[#   6]+0.002*[#   7]+
    |psi|^2 = 0.998
==== e(  13) =    14.48705 eV ==== 
     psi = 0.534*[#   9]+0.178*[#  12]+0.134*[#  15]+0.134*[#  16]+0.005*[#  11]+
          +0.005*[#  13]+0.004*[#   6]+0.004*[#   7]+
    |psi|^2 = 0.999
==== e(  14) =    21.35968 eV ==== 
     psi = 0.250*[#   8]+0.225*[#   6]+0.225*[#   7]+0.107*[#  14]+0.056*[#  17]+
          +0.011*[#  10]+0.007*[#  12]+0.007*[#  15]+0.007*[#  16]+0.007*[#   2]+
          +0.002*[#   9]+0.002*[#  11]+0.002*[#  13]+
    |psi|^2 = 0.911
==== e(  15) =    22.72269 eV ==== 
     psi = 0.705*[#   2]+0.068*[#  15]+0.068*[#  16]+0.039*[#  17]+0.031*[#   8]+
          +0.021*[#   6]+0.021*[#   7]+0.008*[#   1]+0.004*[#  10]+0.001*[#  11]+
          +0.001*[#  13]+0.001*[#  12]+
    |psi|^2 = 0.969

 k =   0.1544316358  0.0386079089  0.1544316358
==== e(   1) =   -73.30899 eV ==== 
     psi = 0.983*[#   1]+0.008*[#   2]+0.003*[#  15]+0.003*[#  16]+0.002*[#   8]+
    |psi|^2 = 1.000
==== e(   2) =   -39.21606 eV ==== 
     psi = 0.351*[#   3]+0.351*[#   4]+0.287*[#   5]+0.002*[#   8]+0.002*[#  17]+
          +0.001*[#  14]+
    |psi|^2 = 0.998
==== e(   3) =   -39.17138 eV ==== 
     psi = 0.701*[#   5]+0.144*[#   3]+0.144*[#   4]+0.005*[#  17]+
    |psi|^2 = 0.998
==== e(   4) =   -39.14259 eV ==== 
     psi = 0.495*[#   3]+0.495*[#   4]+0.003*[#   6]+0.003*[#   7]+
    |psi|^2 = 0.998
==== e(   5) =    -5.66510 eV ==== 
     psi = 0.845*[#  14]+0.050*[#   6]+0.050*[#   7]+0.024*[#  12]+0.019*[#   8]+
          +0.008*[#   9]+0.001*[#   3]+0.001*[#   4]+
    |psi|^2 = 0.999
==== e(   6) =     6.37070 eV ==== 
     psi = 0.245*[#  15]+0.245*[#  16]+0.201*[#  17]+0.111*[#   2]+0.057*[#  10]+
          +0.047*[#   8]+0.025*[#  11]+0.025*[#  13]+0.016*[#   6]+0.016*[#   7]+
          +0.006*[#  12]+0.003*[#   1]+0.002*[#   9]+0.002*[#   5]+
    |psi|^2 = 0.999
==== e(   7) =     7.51191 eV ==== 
     psi = 0.515*[#  17]+0.102*[#  15]+0.102*[#  16]+0.083*[#   8]+0.080*[#  12]+
          +0.029*[#  10]+0.027*[#   9]+0.018*[#  11]+0.018*[#  13]+0.008*[#   6]+
          +0.008*[#   7]+0.004*[#   5]+0.004*[#   2]+
    |psi|^2 = 0.999
==== e(   8) =     8.03498 eV ==== 
     psi = 0.356*[#  15]+0.356*[#  16]+0.187*[#   9]+0.062*[#  12]+0.013*[#   6]+
          +0.013*[#   7]+0.006*[#  11]+0.006*[#  13]+
    |psi|^2 = 0.999
==== e(   9) =    12.29625 eV ==== 
     psi = 0.835*[#  10]+0.055*[#  12]+0.026*[#  15]+0.026*[#  16]+0.018*[#   9]+
          +0.010*[#  11]+0.010*[#  13]+0.007*[#  14]+0.003*[#   6]+0.003*[#   7]+
          +0.002*[#   2]+
    |psi|^2 = 0.996
==== e(  10) =    12.82765 eV ==== 
     psi = 0.491*[#  11]+0.491*[#  13]+0.012*[#   9]+0.004*[#  12]+0.001*[#  15]+
          +0.001*[#  16]+
    |psi|^2 = 0.999
==== e(  11) =    12.98388 eV ==== 
     psi = 0.419*[#  11]+0.419*[#  13]+0.058*[#  17]+0.030*[#  12]+0.025*[#  10]+
          +0.016*[#  15]+0.016*[#  16]+0.010*[#   9]+0.006*[#   2]+0.002*[#  14]+
    |psi|^2 = 0.999
==== e(  12) =    13.69049 eV ==== 
     psi = 0.548*[#  12]+0.183*[#   9]+0.072*[#  17]+0.037*[#  14]+0.031*[#  10]+
          +0.030*[#  15]+0.030*[#  16]+0.023*[#  11]+0.023*[#  13]+0.010*[#   8]+
          +0.009*[#   2]+0.001*[#   6]+0.001*[#   7]+
    |psi|^2 = 0.998
==== e(  13) =    14.33540 eV ==== 
     psi = 0.551*[#   9]+0.184*[#  12]+0.124*[#  15]+0.124*[#  16]+0.005*[#   6]+
          +0.005*[#   7]+0.004*[#  11]+0.004*[#  13]+
    |psi|^2 = 0.999
==== e(  14) =    21.93377 eV ==== 
     psi = 0.268*[#   8]+0.204*[#   6]+0.204*[#   7]+0.082*[#  14]+0.072*[#  17]+
          +0.054*[#   2]+0.011*[#  10]+0.004*[#  12]+0.003*[#  11]+0.003*[#  13]+
          +0.002*[#  15]+0.002*[#  16]+0.001*[#   9]+
    |psi|^2 = 0.910
==== e(  15) =    22.62783 eV ==== 
     psi = 0.688*[#   2]+0.072*[#  15]+0.072*[#  16]+0.044*[#   6]+0.044*[#   7]+
          +0.016*[#  17]+0.008*[#   1]+0.006*[#  10]+0.005*[#   8]+0.003*[#  14]+
          +0.002*[#  12]+
    |psi|^2 = 0.962

 k =   0.1608662873  0.0257386060  0.1608662873
==== e(   1) =   -73.31111 eV ==== 
     psi = 0.984*[#   1]+0.008*[#   2]+0.002*[#  15]+0.002*[#  16]+0.002*[#   8]+
    |psi|^2 = 1.000
==== e(   2) =   -39.21191 eV ==== 
     psi = 0.351*[#   3]+0.351*[#   4]+0.290*[#   5]+0.002*[#  17]+0.001*[#  14]+
    |psi|^2 = 0.998
==== e(   3) =   -39.20529 eV ==== 
     psi = 0.699*[#   5]+0.145*[#   3]+0.145*[#   4]+0.006*[#  17]+
    |psi|^2 = 0.998
==== e(   4) =   -39.14515 eV ==== 
     psi = 0.496*[#   3]+0.495*[#   4]+0.002*[#   6]+0.002*[#   7]+0.001*[#  15]+
          +0.001*[#  16]+
    |psi|^2 = 0.998
==== e(   5) =    -5.66590 eV ==== 
     psi = 0.861*[#  14]+0.043*[#   6]+0.043*[#   7]+0.030*[#  12]+0.010*[#   9]+
          +0.009*[#   8]+0.002*[#   2]+
    |psi|^2 = 0.999
==== e(   6) =     6.64970 eV ==== 
     psi = 0.249*[#  15]+0.249*[#  16]+0.208*[#  17]+0.090*[#   2]+0.060*[#  10]+
          +0.052*[#   8]+0.019*[#  11]+0.019*[#  13]+0.018*[#   6]+0.018*[#   7]+
          +0.009*[#  12]+0.003*[#   9]+0.002*[#   1]+0.002*[#   5]+
    |psi|^2 = 0.999
==== e(   7) =     7.38805 eV ==== 
     psi = 0.526*[#  17]+0.104*[#  15]+0.104*[#  16]+0.100*[#   8]+0.049*[#  12]+
          +0.029*[#  10]+0.019*[#  11]+0.019*[#  13]+0.016*[#   9]+0.009*[#   6]+
          +0.009*[#   7]+0.008*[#   2]+0.005*[#   5]+
    |psi|^2 = 0.999
==== e(   8) =     8.11236 eV ==== 
     psi = 0.364*[#  15]+0.364*[#  16]+0.175*[#   9]+0.058*[#  12]+0.015*[#   6]+
          +0.015*[#   7]+0.003*[#  11]+0.003*[#  13]+
    |psi|^2 = 0.999
==== e(   9) =    12.15288 eV ==== 
     psi = 0.846*[#  10]+0.048*[#  12]+0.032*[#  15]+0.032*[#  16]+0.016*[#   9]+
          +0.006*[#  14]+0.003*[#  11]+0.003*[#  13]+0.003*[#   2]+0.003*[#   6]+
          +0.003*[#   7]+
    |psi|^2 = 0.995
==== e(  10) =    12.85524 eV ==== 
     psi = 0.495*[#  11]+0.495*[#  13]+0.006*[#   9]+0.002*[#  12]+
    |psi|^2 = 0.999
==== e(  11) =    13.00337 eV ==== 
     psi = 0.430*[#  11]+0.430*[#  13]+0.063*[#  17]+0.032*[#  12]+0.011*[#   9]+
          +0.010*[#  10]+0.009*[#  15]+0.009*[#  16]+0.004*[#   2]+0.002*[#  14]+
    |psi|^2 = 0.999
==== e(  12) =    13.49502 eV ==== 
     psi = 0.576*[#  12]+0.192*[#   9]+0.041*[#  14]+0.040*[#  17]+0.030*[#  10]+
          +0.028*[#  15]+0.028*[#  16]+0.022*[#  11]+0.022*[#  13]+0.012*[#   2]+
          +0.005*[#   8]+
    |psi|^2 = 0.998
==== e(  13) =    14.17459 eV ==== 
     psi = 0.568*[#   9]+0.189*[#  12]+0.114*[#  15]+0.114*[#  16]+0.005*[#   6]+
          +0.005*[#   7]+0.002*[#  11]+0.002*[#  13]+
    |psi|^2 = 0.999
==== e(  14) =    22.27893 eV ==== 
     psi = 0.537*[#   2]+0.162*[#   8]+0.062*[#  17]+0.060*[#   6]+0.060*[#   7]+
          +0.032*[#  14]+0.016*[#  15]+0.016*[#  16]+0.007*[#   1]+0.002*[#  10]+
          +0.002*[#  11]+0.002*[#  13]+
    |psi|^2 = 0.957
==== e(  15) =    22.74126 eV ==== 
     psi = 0.260*[#   2]+0.186*[#   6]+0.186*[#   7]+0.091*[#   8]+0.054*[#  15]+
          +0.054*[#  16]+0.033*[#  14]+0.015*[#  10]+0.010*[#  17]+0.005*[#  12]+
          +0.004*[#   1]+0.002*[#   9]+
    |psi|^2 = 0.901

 k =   0.1673009388  0.0128693030  0.1673009388
==== e(   1) =   -73.30689 eV ==== 
     psi = 0.985*[#   1]+0.009*[#   2]+0.002*[#  15]+0.002*[#  16]+
    |psi|^2 = 1.000
==== e(   2) =   -39.20062 eV ==== 
     psi = 0.494*[#   3]+0.494*[#   4]+0.004*[#   5]+0.002*[#  15]+0.002*[#  16]+
          +0.001*[#  14]+
    |psi|^2 = 0.998
==== e(   3) =   -39.19638 eV ==== 
     psi = 0.984*[#   5]+0.009*[#  17]+0.002*[#   3]+0.002*[#   4]+
    |psi|^2 = 0.998
==== e(   4) =   -39.12298 eV ==== 
     psi = 0.496*[#   3]+0.496*[#   4]+0.002*[#   6]+0.002*[#   7]+0.002*[#  15]+
          +0.002*[#  16]+
    |psi|^2 = 0.998
==== e(   5) =    -5.66957 eV ==== 
     psi = 0.873*[#  14]+0.036*[#   6]+0.036*[#   7]+0.035*[#  12]+0.012*[#   9]+
          +0.003*[#   2]+0.003*[#   8]+
    |psi|^2 = 0.999
==== e(   6) =     6.94138 eV ==== 
     psi = 0.244*[#  15]+0.244*[#  16]+0.234*[#  17]+0.067*[#   2]+0.061*[#  10]+
          +0.058*[#   8]+0.019*[#   6]+0.019*[#   7]+0.015*[#  11]+0.015*[#  13]+
          +0.013*[#  12]+0.004*[#   9]+0.003*[#   5]+0.001*[#   1]+
    |psi|^2 = 0.999
==== e(   7) =     7.28470 eV ==== 
     psi = 0.513*[#  17]+0.115*[#  15]+0.115*[#  16]+0.111*[#   8]+0.031*[#  10]+
          +0.026*[#  12]+0.019*[#  11]+0.019*[#  13]+0.015*[#   2]+0.010*[#   6]+
          +0.010*[#   7]+0.009*[#   9]+0.006*[#   5]+
    |psi|^2 = 0.999
==== e(   8) =     8.20391 eV ==== 
     psi = 0.371*[#  15]+0.371*[#  16]+0.162*[#   9]+0.054*[#  12]+0.018*[#   6]+
          +0.018*[#   7]+
    |psi|^2 = 0.999
==== e(   9) =    12.00252 eV ==== 
     psi = 0.854*[#  10]+0.039*[#  12]+0.037*[#  15]+0.037*[#  16]+0.013*[#   9]+
          +0.006*[#  14]+0.004*[#   2]+0.002*[#   6]+0.002*[#   7]+
    |psi|^2 = 0.994
==== e(  10) =    12.88727 eV ==== 
     psi = 0.498*[#  11]+0.498*[#  13]+0.002*[#   9]+
    |psi|^2 = 1.000
==== e(  11) =    13.03156 eV ==== 
     psi = 0.449*[#  11]+0.449*[#  13]+0.068*[#  17]+0.017*[#  12]+0.006*[#   9]+
          +0.003*[#  15]+0.003*[#  16]+0.002*[#  10]+0.001*[#   2]+0.001*[#  14]+
    |psi|^2 = 0.999
==== e(  12) =    13.36393 eV ==== 
     psi = 0.615*[#  12]+0.205*[#   9]+0.045*[#  14]+0.027*[#  15]+0.027*[#  16]+
          +0.026*[#  10]+0.014*[#   2]+0.013*[#  17]+0.012*[#  11]+0.012*[#  13]+
          +0.002*[#   8]+
    |psi|^2 = 0.998
==== e(  13) =    14.00603 eV ==== 
     psi = 0.585*[#   9]+0.195*[#  12]+0.103*[#  15]+0.103*[#  16]+0.005*[#   6]+
          +0.005*[#   7]+
    |psi|^2 = 0.999
==== e(  14) =    22.22264 eV ==== 
     psi = 0.811*[#   2]+0.034*[#  15]+0.034*[#  16]+0.030*[#   8]+0.014*[#  17]+
          +0.014*[#   6]+0.014*[#   7]+0.013*[#  14]+0.011*[#   1]+
    |psi|^2 = 0.978
==== e(  15) =    23.23894 eV ==== 
     psi = 0.223*[#   6]+0.223*[#   7]+0.212*[#   8]+0.044*[#   2]+0.043*[#  17]+
          +0.035*[#  14]+0.027*[#  15]+0.027*[#  16]+0.017*[#  10]+0.003*[#  12]+
          +0.001*[#  11]+0.001*[#  13]+0.001*[#   9]+
    |psi|^2 = 0.858

 k =   0.1737355902  0.0000000000  0.1737355902
==== e(   1) =   -73.30597 eV ==== 
     psi = 0.986*[#   1]+0.009*[#   2]+0.002*[#  15]+0.002*[#  16]+
    |psi|^2 = 1.000
==== e(   2) =   -39.19441 eV ==== 
     psi = 0.496*[#   3]+0.496*[#   4]+0.002*[#  15]+0.002*[#  16]+0.001*[#  14]+
    |psi|^2 = 0.998
==== e(   3) =   -39.19357 eV ==== 
     psi = 0.988*[#   5]+0.010*[#  17]+
    |psi|^2 = 0.998
==== e(   4) =   -39.12369 eV ==== 
     psi = 0.496*[#   3]+0.496*[#   4]+0.002*[#  15]+0.002*[#  16]+0.002*[#   6]+
          +0.002*[#   7]+
    |psi|^2 = 0.998
==== e(   5) =    -5.67882 eV ==== 
     psi = 0.880*[#  14]+0.040*[#  12]+0.030*[#   6]+0.030*[#   7]+0.013*[#   9]+
          +0.006*[#   2]+
    |psi|^2 = 0.999
==== e(   6) =     7.14349 eV ==== 
     psi = 0.751*[#  17]+0.182*[#   8]+0.029*[#  11]+0.029*[#  13]+0.009*[#   5]+
    |psi|^2 = 1.000
==== e(   7) =     7.25299 eV ==== 
     psi = 0.365*[#  15]+0.365*[#  16]+0.094*[#  10]+0.071*[#   2]+0.030*[#  12]+
          +0.030*[#   6]+0.030*[#   7]+0.010*[#   9]+0.001*[#   3]+0.001*[#   4]+
          +0.001*[#   1]+
    |psi|^2 = 0.999
==== e(   8) =     8.29376 eV ==== 
     psi = 0.380*[#  15]+0.380*[#  16]+0.147*[#   9]+0.049*[#  12]+0.020*[#   6]+
          +0.020*[#   7]+
    |psi|^2 = 0.999
==== e(   9) =    11.84837 eV ==== 
     psi = 0.861*[#  10]+0.040*[#  15]+0.040*[#  16]+0.030*[#  12]+0.010*[#   9]+
          +0.005*[#  14]+0.004*[#   2]+0.002*[#   6]+0.002*[#   7]+
    |psi|^2 = 0.993
==== e(  10) =    12.92109 eV ==== 
     psi = 0.500*[#  11]+0.500*[#  13]+
    |psi|^2 = 1.000
==== e(  11) =    13.05084 eV ==== 
     psi = 0.467*[#  11]+0.467*[#  13]+0.065*[#  17]+
    |psi|^2 = 1.000
==== e(  12) =    13.30838 eV ==== 
     psi = 0.647*[#  12]+0.216*[#   9]+0.049*[#  14]+0.026*[#  15]+0.026*[#  16]+
          +0.020*[#  10]+0.013*[#   2]+
    |psi|^2 = 0.998
==== e(  13) =    13.82803 eV ==== 
     psi = 0.602*[#   9]+0.201*[#  12]+0.092*[#  15]+0.092*[#  16]+0.005*[#   6]+
          +0.005*[#   7]+
    |psi|^2 = 0.999
==== e(  14) =    22.00657 eV ==== 
     psi = 0.861*[#   2]+0.031*[#  15]+0.031*[#  16]+0.015*[#   6]+0.015*[#   7]+
          +0.015*[#  14]+0.012*[#   1]+
    |psi|^2 = 0.980
==== e(  15) =    23.67153 eV ==== 
     psi = 0.759*[#   8]+0.162*[#  17]+0.004*[#  11]+0.004*[#  13]+0.001*[#   5]+
    |psi|^2 = 0.930

Lowdin Charges: 

     Atom #   1: total charge =  16.0981, s =  2.2744, 
     Atom #   1: total charge =  16.0981, p =  6.6177, pz=  2.1541, px=  2.2875, py=  2.1761, 
     Atom #   1: total charge =  16.0981, d =  7.2060, dz2=  0.9164, dxz=  1.7782, dyz=  1.8794, dx2-y2=  1.0129, dxy=  1.6191, 
     Atom #   2: total charge =   6.4765, s =  1.6163, 
     Atom #   2: total charge =   6.4765, p =  4.8602, pz=  1.6042, px=  1.5613, py=  1.6948, 
     Atom #   2: total charge =   6.4765, d =  0.0000, dz2=  0.0000, dxz=  0.0000, dyz=  0.0000, dx2-y2=  0.0000, dxy=  0.0000, 
     Spilling Parameter:  -0.0261

     PROJWFC      :     2.14s CPU         2.31s WALL


   This run was terminated on:  18:26:50  15Aug2017            

=------------------------------------------------------------------------------=
   JOB DONE.
=------------------------------------------------------------------------------=
