
     Program PROJWFC v.6.1 (svn rev. 13369) starts on 15Aug2017 at 18:26:40 

     This program is part of the open-source Quantum ESPRESSO suite
     for quantum simulation of materials; please cite
         "P. Giannozzi et al., J. Phys.:Condens. Matter 21 395502 (2009);
          URL http://www.quantum-espresso.org", 
     in publications or presentations arising from this work. More details at
     http://www.quantum-espresso.org/quote

     Parallel version (MPI), running on     8 processors
     R & G space division:  proc/nbgrp/npool/nimage =       8

     Reading data from directory:
     ./outdir/pwscf.save

   Info: using nr1, nr2, nr3 values from input

   Info: using nr1, nr2, nr3 values from input

     IMPORTANT: XC functional enforced from input :
     Exchange-correlation      =  SLA  PZ   NOGX NOGC ( 1  1  0  0 0 0)
     Any further DFT definition will be discarded
     Please, verify this is what you really want

               file Fe.pz-spn-kjpaw_psl.0.2.1.UPF: wavefunction(s)  3D renormalized
               file O.pz-n-kjpaw_psl.0.1.UPF: wavefunction(s)  2P renormalized

     Parallelization info
     --------------------
     sticks:   dense  smooth     PW     G-vecs:    dense   smooth      PW
     Min          33      33     12                  371      371      80
     Max          35      35     13                  372      372      81
     Sum         271     271     97                 2975     2975     645


     Check: negative/imaginary core charge=   -0.007909    0.000000

     negative rho (up, down):  1.067E-04 0.000E+00

     Gaussian broadening (read from file): ngauss,degauss=   0    0.020000


     Calling projwave .... 

     Atomic states used for projection
     (read from pseudopotential files):

     state #   1: atom   1 (Fe ), wfc  1 (l=0 m= 1)
     state #   2: atom   1 (Fe ), wfc  2 (l=0 m= 1)
     state #   3: atom   1 (Fe ), wfc  3 (l=1 m= 1)
     state #   4: atom   1 (Fe ), wfc  3 (l=1 m= 2)
     state #   5: atom   1 (Fe ), wfc  3 (l=1 m= 3)
     state #   6: atom   1 (Fe ), wfc  4 (l=1 m= 1)
     state #   7: atom   1 (Fe ), wfc  4 (l=1 m= 2)
     state #   8: atom   1 (Fe ), wfc  4 (l=1 m= 3)
     state #   9: atom   1 (Fe ), wfc  5 (l=2 m= 1)
     state #  10: atom   1 (Fe ), wfc  5 (l=2 m= 2)
     state #  11: atom   1 (Fe ), wfc  5 (l=2 m= 3)
     state #  12: atom   1 (Fe ), wfc  5 (l=2 m= 4)
     state #  13: atom   1 (Fe ), wfc  5 (l=2 m= 5)
     state #  14: atom   2 (O  ), wfc  1 (l=0 m= 1)
     state #  15: atom   2 (O  ), wfc  2 (l=1 m= 1)
     state #  16: atom   2 (O  ), wfc  2 (l=1 m= 2)
     state #  17: atom   2 (O  ), wfc  2 (l=1 m= 3)

 k =   0.0144779659  0.0144779659  0.0144779659
==== e(   1) =   -73.29789 eV ==== 
     psi = 0.954*[#   1]+0.015*[#   2]+0.010*[#   6]+0.010*[#   7]+0.010*[#   8]+
    |psi|^2 = 1.000
==== e(   2) =   -39.09632 eV ==== 
     psi = 0.327*[#   3]+0.327*[#   4]+0.327*[#   5]+0.004*[#   6]+0.004*[#   7]+
          +0.004*[#   8]+0.003*[#   2]+
    |psi|^2 = 0.999
==== e(   3) =   -39.07131 eV ==== 
     psi = 0.325*[#   3]+0.325*[#   4]+0.325*[#   5]+0.007*[#   6]+0.007*[#   7]+
          +0.007*[#   8]+
    |psi|^2 = 0.999
==== e(   4) =   -39.07131 eV ==== 
     psi = 0.325*[#   3]+0.325*[#   4]+0.325*[#   5]+0.007*[#   6]+0.007*[#   7]+
          +0.007*[#   8]+
    |psi|^2 = 0.999
==== e(   5) =    -6.80366 eV ==== 
     psi = 0.636*[#  14]+0.295*[#   2]+0.019*[#   6]+0.019*[#   7]+0.019*[#   8]+
          +0.013*[#   1]+
    |psi|^2 = 1.000
==== e(   6) =     9.63939 eV ==== 
     psi = 0.305*[#  15]+0.305*[#  16]+0.305*[#  17]+0.028*[#   2]+0.013*[#  14]+
          +0.011*[#  10]+0.011*[#  11]+0.011*[#  13]+0.001*[#   6]+0.001*[#   7]+
          +0.001*[#   8]+
    |psi|^2 = 0.997
==== e(   7) =     9.77664 eV ==== 
     psi = 0.307*[#  15]+0.307*[#  16]+0.307*[#  17]+0.028*[#   9]+0.028*[#  12]+
          +0.003*[#   6]+0.003*[#   7]+0.003*[#   8]+0.003*[#  10]+0.003*[#  11]+
          +0.003*[#  13]+
    |psi|^2 = 0.997
==== e(   8) =     9.77664 eV ==== 
     psi = 0.307*[#  15]+0.307*[#  16]+0.307*[#  17]+0.028*[#   9]+0.028*[#  12]+
          +0.003*[#   6]+0.003*[#   7]+0.003*[#   8]+0.003*[#  10]+0.003*[#  11]+
          +0.003*[#  13]+
    |psi|^2 = 0.997
==== e(   9) =    11.87976 eV ==== 
     psi = 0.327*[#  10]+0.327*[#  11]+0.327*[#  13]+0.005*[#   9]+0.005*[#  12]+
          +0.002*[#  15]+0.002*[#  16]+0.002*[#  17]+
    |psi|^2 = 0.995
==== e(  10) =    11.87976 eV ==== 
     psi = 0.327*[#  10]+0.327*[#  11]+0.327*[#  13]+0.005*[#   9]+0.005*[#  12]+
          +0.002*[#  15]+0.002*[#  16]+0.002*[#  17]+
    |psi|^2 = 0.995
==== e(  11) =    11.90816 eV ==== 
     psi = 0.320*[#  10]+0.320*[#  11]+0.320*[#  13]+0.011*[#  15]+0.011*[#  16]+
          +0.011*[#  17]+0.001*[#  14]+
    |psi|^2 = 0.995
==== e(  12) =    12.40919 eV ==== 
     psi = 0.466*[#   9]+0.466*[#  12]+0.020*[#  15]+0.020*[#  16]+0.020*[#  17]+
          +0.002*[#  10]+0.002*[#  11]+0.002*[#  13]+
    |psi|^2 = 0.997
==== e(  13) =    12.40919 eV ==== 
     psi = 0.466*[#   9]+0.466*[#  12]+0.020*[#  15]+0.020*[#  16]+0.020*[#  17]+
          +0.002*[#  10]+0.002*[#  11]+0.002*[#  13]+
    |psi|^2 = 0.997
==== e(  14) =    14.97756 eV ==== 
     psi = 0.544*[#   2]+0.343*[#  14]+0.018*[#   6]+0.018*[#   7]+0.018*[#   8]+
          +0.017*[#   1]+0.012*[#  15]+0.012*[#  16]+0.012*[#  17]+
    |psi|^2 = 0.996
==== e(  15) =    28.89615 eV ==== 
     psi = 0.013*[#   6]+0.013*[#   7]+0.013*[#   8]+0.005*[#   2]+
    |psi|^2 = 0.048

 k =  -0.0144779659  0.0434338976  0.0434338976
==== e(   1) =   -73.30570 eV ==== 
     psi = 0.912*[#   1]+0.029*[#   6]+0.029*[#   7]+0.029*[#   8]+
    |psi|^2 = 1.000
==== e(   2) =   -39.13541 eV ==== 
     psi = 0.330*[#   3]+0.330*[#   4]+0.330*[#   5]+0.005*[#   2]+
    |psi|^2 = 0.998
==== e(   3) =   -39.10998 eV ==== 
     psi = 0.327*[#   3]+0.327*[#   4]+0.327*[#   5]+0.005*[#   6]+0.005*[#   7]+
          +0.005*[#   8]+
    |psi|^2 = 0.999
==== e(   4) =   -39.09991 eV ==== 
     psi = 0.326*[#   3]+0.326*[#   4]+0.326*[#   5]+0.006*[#   6]+0.006*[#   7]+
          +0.006*[#   8]+
    |psi|^2 = 0.999
==== e(   5) =    -6.60797 eV ==== 
     psi = 0.627*[#  14]+0.164*[#   2]+0.064*[#   6]+0.064*[#   7]+0.064*[#   8]+
          +0.015*[#   1]+
    |psi|^2 = 1.000
==== e(   6) =     8.45567 eV ==== 
     psi = 0.253*[#  15]+0.253*[#  16]+0.253*[#  17]+0.083*[#   2]+0.043*[#  14]+
          +0.022*[#   9]+0.022*[#  12]+0.020*[#  10]+0.020*[#  11]+0.020*[#  13]+
          +0.004*[#   1]+0.001*[#   6]+0.001*[#   7]+0.001*[#   8]+
    |psi|^2 = 0.997
==== e(   7) =     9.07810 eV ==== 
     psi = 0.257*[#  15]+0.257*[#  16]+0.257*[#  17]+0.110*[#   9]+0.110*[#  12]+
          +0.001*[#  10]+0.001*[#  11]+0.001*[#  13]+0.001*[#   6]+0.001*[#   7]+
          +0.001*[#   8]+
    |psi|^2 = 0.997
==== e(   8) =     9.37317 eV ==== 
     psi = 0.278*[#  15]+0.278*[#  16]+0.278*[#  17]+0.032*[#  10]+0.032*[#  11]+
          +0.032*[#  13]+0.022*[#   9]+0.022*[#  12]+0.007*[#   6]+0.007*[#   7]+
          +0.007*[#   8]+
    |psi|^2 = 0.997
==== e(   9) =    11.97654 eV ==== 
     psi = 0.329*[#  10]+0.329*[#  11]+0.329*[#  13]+0.003*[#   9]+0.003*[#  12]+
    |psi|^2 = 0.996
==== e(  10) =    12.08003 eV ==== 
     psi = 0.284*[#  10]+0.284*[#  11]+0.284*[#  13]+0.030*[#   9]+0.030*[#  12]+
          +0.026*[#  15]+0.026*[#  16]+0.026*[#  17]+0.002*[#  14]+0.002*[#   2]+
    |psi|^2 = 0.996
==== e(  11) =    12.20954 eV ==== 
     psi = 0.296*[#  10]+0.296*[#  11]+0.296*[#  13]+0.033*[#   9]+0.033*[#  12]+
          +0.012*[#  15]+0.012*[#  16]+0.012*[#  17]+0.003*[#  14]+0.002*[#   6]+
          +0.002*[#   7]+0.002*[#   8]+0.001*[#   2]+
    |psi|^2 = 0.997
==== e(  12) =    12.69838 eV ==== 
     psi = 0.388*[#   9]+0.388*[#  12]+0.035*[#  15]+0.035*[#  16]+0.035*[#  17]+
          +0.028*[#  10]+0.028*[#  11]+0.028*[#  13]+0.014*[#   2]+0.013*[#  14]+
          +0.001*[#   6]+0.001*[#   7]+0.001*[#   8]+
    |psi|^2 = 0.997
==== e(  13) =    13.26414 eV ==== 
     psi = 0.386*[#   9]+0.386*[#  12]+0.073*[#  15]+0.073*[#  16]+0.073*[#  17]+
          +0.001*[#   6]+0.001*[#   7]+0.001*[#   8]+
    |psi|^2 = 0.997
==== e(  14) =    16.10597 eV ==== 
     psi = 0.328*[#   2]+0.295*[#  14]+0.063*[#   6]+0.063*[#   7]+0.063*[#   8]+
          +0.051*[#  15]+0.051*[#  16]+0.051*[#  17]+0.018*[#   1]+0.004*[#   9]+
          +0.004*[#  12]+
    |psi|^2 = 0.995
==== e(  15) =    27.30661 eV ==== 
     psi = 0.081*[#   6]+0.081*[#   7]+0.081*[#   8]+0.046*[#   2]+0.005*[#   1]+
          +0.003*[#  10]+0.003*[#  11]+0.003*[#  13]+0.002*[#   3]+0.002*[#   4]+
          +0.002*[#   5]+0.002*[#  15]+0.002*[#  16]+0.002*[#  17]+0.001*[#  14]+
    |psi|^2 = 0.316

 k =  -0.0434338976  0.0723898293  0.0723898293
==== e(   1) =   -73.30563 eV ==== 
     psi = 0.911*[#   1]+0.027*[#   6]+0.027*[#   7]+0.027*[#   8]+0.004*[#   2]+
          +0.001*[#  15]+0.001*[#  16]+0.001*[#  17]+
    |psi|^2 = 1.000
==== e(   2) =   -39.19266 eV ==== 
     psi = 0.329*[#   3]+0.329*[#   4]+0.329*[#   5]+0.003*[#   2]+0.002*[#   6]+
          +0.002*[#   7]+0.002*[#   8]+
    |psi|^2 = 0.998
==== e(   3) =   -39.11075 eV ==== 
     psi = 0.329*[#   3]+0.329*[#   4]+0.329*[#   5]+0.003*[#   6]+0.003*[#   7]+
          +0.003*[#   8]+
    |psi|^2 = 0.998
==== e(   4) =   -39.10043 eV ==== 
     psi = 0.328*[#   3]+0.328*[#   4]+0.328*[#   5]+0.005*[#   6]+0.005*[#   7]+
          +0.005*[#   8]+
    |psi|^2 = 0.999
==== e(   5) =    -6.20575 eV ==== 
     psi = 0.668*[#  14]+0.083*[#   6]+0.083*[#   7]+0.083*[#   8]+0.064*[#   2]+
          +0.012*[#   1]+0.002*[#   3]+0.002*[#   4]+0.002*[#   5]+
    |psi|^2 = 1.000
==== e(   6) =     6.92728 eV ==== 
     psi = 0.226*[#  15]+0.226*[#  16]+0.226*[#  17]+0.128*[#   2]+0.047*[#  14]+
          +0.034*[#  10]+0.034*[#  11]+0.034*[#  13]+0.008*[#   9]+0.008*[#  12]+
          +0.007*[#   6]+0.007*[#   7]+0.007*[#   8]+0.006*[#   1]+
    |psi|^2 = 0.998
==== e(   7) =     8.35422 eV ==== 
     psi = 0.232*[#  15]+0.232*[#  16]+0.232*[#  17]+0.141*[#   9]+0.141*[#  12]+
          +0.006*[#  10]+0.006*[#  11]+0.006*[#  13]+
    |psi|^2 = 0.998
==== e(   8) =     8.55780 eV ==== 
     psi = 0.241*[#  15]+0.241*[#  16]+0.241*[#  17]+0.089*[#   9]+0.089*[#  12]+
          +0.026*[#  10]+0.026*[#  11]+0.026*[#  13]+0.006*[#   6]+0.006*[#   7]+
          +0.006*[#   8]+
    |psi|^2 = 0.998
==== e(   9) =    12.28625 eV ==== 
     psi = 0.322*[#  10]+0.322*[#  11]+0.322*[#  13]+0.012*[#   9]+0.012*[#  12]+
          +0.001*[#  15]+0.001*[#  16]+0.001*[#  17]+
    |psi|^2 = 0.997
==== e(  10) =    12.34721 eV ==== 
     psi = 0.279*[#  10]+0.279*[#  11]+0.279*[#  13]+0.044*[#   9]+0.044*[#  12]+
          +0.017*[#  15]+0.017*[#  16]+0.017*[#  17]+0.007*[#  14]+0.004*[#   2]+
          +0.003*[#   6]+0.003*[#   7]+0.003*[#   8]+
    |psi|^2 = 0.997
==== e(  11) =    12.59642 eV ==== 
     psi = 0.300*[#  10]+0.300*[#  11]+0.300*[#  13]+0.018*[#  15]+0.018*[#  16]+
          +0.018*[#  17]+0.014*[#   9]+0.014*[#  12]+0.005*[#  14]+0.003*[#   2]+
          +0.002*[#   6]+0.002*[#   7]+0.002*[#   8]+
    |psi|^2 = 0.998
==== e(  12) =    13.60239 eV ==== 
     psi = 0.339*[#   9]+0.339*[#  12]+0.077*[#  15]+0.077*[#  16]+0.077*[#  17]+
          +0.022*[#  10]+0.022*[#  11]+0.022*[#  13]+0.009*[#  14]+0.006*[#   2]+
          +0.003*[#   6]+0.003*[#   7]+0.003*[#   8]+
    |psi|^2 = 0.998
==== e(  13) =    14.19749 eV ==== 
     psi = 0.345*[#   9]+0.345*[#  12]+0.098*[#  15]+0.098*[#  16]+0.098*[#  17]+
          +0.003*[#  10]+0.003*[#  11]+0.003*[#  13]+
    |psi|^2 = 0.998
==== e(  14) =    17.81853 eV ==== 
     psi = 0.243*[#  14]+0.173*[#   2]+0.113*[#   6]+0.113*[#   7]+0.113*[#   8]+
          +0.067*[#  15]+0.067*[#  16]+0.067*[#  17]+0.018*[#   1]+0.004*[#   9]+
          +0.004*[#  12]+0.002*[#   3]+0.002*[#   4]+0.002*[#   5]+
    |psi|^2 = 0.988
==== e(  15) =    25.20404 eV ==== 
     psi = 0.337*[#   2]+0.081*[#   6]+0.081*[#   7]+0.081*[#   8]+0.025*[#   1]+
          +0.009*[#  15]+0.009*[#  16]+0.009*[#  17]+0.004*[#  10]+0.004*[#  11]+
          +0.004*[#  13]+0.004*[#  14]+
    |psi|^2 = 0.649

 k =  -0.0723898293  0.1013457610  0.1013457610
==== e(   1) =   -73.30289 eV ==== 
     psi = 0.956*[#   1]+0.010*[#   6]+0.010*[#   7]+0.010*[#   8]+0.005*[#   2]+
          +0.002*[#  15]+0.002*[#  16]+0.002*[#  17]+
    |psi|^2 = 1.000
==== e(   2) =   -39.21427 eV ==== 
     psi = 0.327*[#   3]+0.327*[#   4]+0.327*[#   5]+0.005*[#   6]+0.005*[#   7]+
          +0.005*[#   8]+
    |psi|^2 = 0.998
==== e(   3) =   -39.11841 eV ==== 
     psi = 0.330*[#   3]+0.330*[#   4]+0.330*[#   5]+0.002*[#   6]+0.002*[#   7]+
          +0.002*[#   8]+
    |psi|^2 = 0.998
==== e(   4) =   -39.09909 eV ==== 
     psi = 0.330*[#   3]+0.330*[#   4]+0.330*[#   5]+0.003*[#   6]+0.003*[#   7]+
          +0.003*[#   8]+
    |psi|^2 = 0.999
==== e(   5) =    -5.80581 eV ==== 
     psi = 0.751*[#  14]+0.074*[#   6]+0.074*[#   7]+0.074*[#   8]+0.013*[#   2]+
          +0.004*[#   1]+0.003*[#   3]+0.003*[#   4]+0.003*[#   5]+
    |psi|^2 = 1.000
==== e(   6) =     5.82484 eV ==== 
     psi = 0.219*[#  15]+0.219*[#  16]+0.219*[#  17]+0.170*[#   2]+0.042*[#  10]+
          +0.042*[#  11]+0.042*[#  13]+0.017*[#  14]+0.007*[#   6]+0.007*[#   7]+
          +0.007*[#   8]+0.006*[#   1]+0.002*[#   9]+0.002*[#  12]+
    |psi|^2 = 0.999
==== e(   7) =     7.90834 eV ==== 
     psi = 0.223*[#  15]+0.223*[#  16]+0.223*[#  17]+0.149*[#   9]+0.149*[#  12]+
          +0.010*[#  10]+0.010*[#  11]+0.010*[#  13]+
    |psi|^2 = 0.998
==== e(   8) =     7.97258 eV ==== 
     psi = 0.227*[#  15]+0.227*[#  16]+0.227*[#  17]+0.125*[#   9]+0.125*[#  12]+
          +0.018*[#  10]+0.018*[#  11]+0.018*[#  13]+0.004*[#   6]+0.004*[#   7]+
          +0.004*[#   8]+
    |psi|^2 = 0.998
==== e(   9) =    12.62008 eV ==== 
     psi = 0.318*[#  10]+0.318*[#  11]+0.318*[#  13]+0.017*[#   9]+0.017*[#  12]+
          +0.002*[#  15]+0.002*[#  16]+0.002*[#  17]+
    |psi|^2 = 0.999
==== e(  10) =    12.66999 eV ==== 
     psi = 0.298*[#  10]+0.298*[#  11]+0.298*[#  13]+0.036*[#   9]+0.036*[#  12]+
          +0.008*[#  15]+0.008*[#  16]+0.008*[#  17]+0.003*[#  14]+0.002*[#   6]+
          +0.002*[#   7]+0.002*[#   8]+0.001*[#   2]+
    |psi|^2 = 0.999
==== e(  11) =    12.91598 eV ==== 
     psi = 0.293*[#  10]+0.293*[#  11]+0.293*[#  13]+0.034*[#  15]+0.034*[#  16]+
          +0.034*[#  17]+0.008*[#   2]+0.002*[#  14]+0.002*[#   9]+0.002*[#  12]+
          +0.001*[#   6]+0.001*[#   7]+0.001*[#   8]+
    |psi|^2 = 0.999
==== e(  12) =    14.39609 eV ==== 
     psi = 0.331*[#   9]+0.331*[#  12]+0.094*[#  15]+0.094*[#  16]+0.094*[#  17]+
          +0.012*[#  10]+0.012*[#  11]+0.012*[#  13]+0.007*[#  14]+0.003*[#   6]+
          +0.003*[#   7]+0.003*[#   8]+0.001*[#   2]+
    |psi|^2 = 0.998
==== e(  13) =    14.77792 eV ==== 
     psi = 0.333*[#   9]+0.333*[#  12]+0.107*[#  15]+0.107*[#  16]+0.107*[#  17]+
          +0.004*[#  10]+0.004*[#  11]+0.004*[#  13]+
    |psi|^2 = 0.997
==== e(  14) =    19.22292 eV ==== 
     psi = 0.198*[#  14]+0.187*[#   6]+0.187*[#   7]+0.187*[#   8]+0.054*[#   2]+
          +0.038*[#  15]+0.038*[#  16]+0.038*[#  17]+0.010*[#   1]+0.003*[#   3]+
          +0.003*[#   4]+0.003*[#   5]+0.002*[#   9]+0.002*[#  12]+
    |psi|^2 = 0.951
==== e(  15) =    23.49865 eV ==== 
     psi = 0.635*[#   2]+0.038*[#  15]+0.038*[#  16]+0.038*[#  17]+0.035*[#   6]+
          +0.035*[#   7]+0.035*[#   8]+0.017*[#   1]+0.003*[#  10]+0.003*[#  11]+
          +0.003*[#  13]+0.002*[#  14]+
    |psi|^2 = 0.881

 k =   0.1303016927 -0.1013457610 -0.1013457610
==== e(   1) =   -73.30891 eV ==== 
     psi = 0.984*[#   1]+0.003*[#  15]+0.003*[#  16]+0.003*[#  17]+0.003*[#   2]+
    |psi|^2 = 1.000
==== e(   2) =   -39.25678 eV ==== 
     psi = 0.327*[#   3]+0.327*[#   4]+0.327*[#   5]+0.005*[#   6]+0.005*[#   7]+
          +0.005*[#   8]+0.001*[#  14]+
    |psi|^2 = 0.998
==== e(   3) =   -39.13076 eV ==== 
     psi = 0.330*[#   3]+0.330*[#   4]+0.330*[#   5]+0.003*[#   6]+0.003*[#   7]+
          +0.003*[#   8]+
    |psi|^2 = 0.999
==== e(   4) =   -39.12892 eV ==== 
     psi = 0.330*[#   3]+0.330*[#   4]+0.330*[#   5]+0.003*[#   6]+0.003*[#   7]+
          +0.003*[#   8]+
    |psi|^2 = 0.999
==== e(   5) =    -5.68315 eV ==== 
     psi = 0.783*[#  14]+0.068*[#   6]+0.068*[#   7]+0.068*[#   8]+0.003*[#   3]+
          +0.003*[#   4]+0.003*[#   5]+0.001*[#   9]+0.001*[#  12]+
    |psi|^2 = 1.000
==== e(   6) =     5.50545 eV ==== 
     psi = 0.220*[#  15]+0.220*[#  16]+0.220*[#  17]+0.189*[#   2]+0.044*[#  10]+
          +0.044*[#  11]+0.044*[#  13]+0.005*[#   1]+0.004*[#   6]+0.004*[#   7]+
          +0.004*[#   8]+
    |psi|^2 = 1.000
==== e(   7) =     7.76718 eV ==== 
     psi = 0.222*[#  15]+0.222*[#  16]+0.222*[#  17]+0.140*[#   9]+0.140*[#  12]+
          +0.014*[#  10]+0.014*[#  11]+0.014*[#  13]+0.003*[#   6]+0.003*[#   7]+
          +0.003*[#   8]+
    |psi|^2 = 0.998
==== e(   8) =     7.82136 eV ==== 
     psi = 0.223*[#  15]+0.223*[#  16]+0.223*[#  17]+0.143*[#   9]+0.143*[#  12]+
          +0.013*[#  10]+0.013*[#  11]+0.013*[#  13]+
    |psi|^2 = 0.998
==== e(   9) =    12.71555 eV ==== 
     psi = 0.311*[#  10]+0.311*[#  11]+0.311*[#  13]+0.025*[#   9]+0.025*[#  12]+
          +0.004*[#  15]+0.004*[#  16]+0.004*[#  17]+0.001*[#  14]+
    |psi|^2 = 0.999
==== e(  10) =    12.77917 eV ==== 
     psi = 0.314*[#  10]+0.314*[#  11]+0.314*[#  13]+0.024*[#   9]+0.024*[#  12]+
          +0.003*[#  15]+0.003*[#  16]+0.003*[#  17]+
    |psi|^2 = 1.000
==== e(  11) =    13.02666 eV ==== 
     psi = 0.287*[#  10]+0.287*[#  11]+0.287*[#  13]+0.042*[#  15]+0.042*[#  16]+
          +0.042*[#  17]+0.010*[#   2]+
    |psi|^2 = 0.999
==== e(  12) =    14.75247 eV ==== 
     psi = 0.331*[#   9]+0.331*[#  12]+0.100*[#  15]+0.100*[#  16]+0.100*[#  17]+
          +0.007*[#  14]+0.006*[#  10]+0.006*[#  11]+0.006*[#  13]+0.002*[#   6]+
          +0.002*[#   7]+0.002*[#   8]+
    |psi|^2 = 0.997
==== e(  13) =    14.77960 eV ==== 
     psi = 0.333*[#   9]+0.333*[#  12]+0.105*[#  15]+0.105*[#  16]+0.105*[#  17]+
          +0.006*[#  10]+0.006*[#  11]+0.006*[#  13]+
    |psi|^2 = 0.998
==== e(  14) =    19.61083 eV ==== 
     psi = 0.232*[#   6]+0.232*[#   7]+0.232*[#   8]+0.185*[#  14]+0.007*[#  15]+
          +0.007*[#  16]+0.007*[#  17]+0.003*[#   2]+0.003*[#   3]+0.003*[#   4]+
          +0.003*[#   5]+0.002*[#   9]+0.002*[#  12]+
    |psi|^2 = 0.921
==== e(  15) =    22.92490 eV ==== 
     psi = 0.740*[#   2]+0.062*[#  15]+0.062*[#  16]+0.062*[#  17]+0.009*[#   1]+
          +0.007*[#   6]+0.007*[#   7]+0.007*[#   8]+0.002*[#  10]+0.002*[#  11]+
          +0.002*[#  13]+
    |psi|^2 = 0.963

 k =   0.1013457610 -0.0723898293 -0.0723898293
==== e(   1) =   -73.30436 eV ==== 
     psi = 0.938*[#   1]+0.017*[#   6]+0.017*[#   7]+0.017*[#   8]+0.005*[#   2]+
          +0.002*[#  15]+0.002*[#  16]+0.002*[#  17]+
    |psi|^2 = 1.000
==== e(   2) =   -39.19276 eV ==== 
     psi = 0.327*[#   3]+0.327*[#   4]+0.327*[#   5]+0.004*[#   6]+0.004*[#   7]+
          +0.004*[#   8]+0.001*[#   2]+
    |psi|^2 = 0.998
==== e(   3) =   -39.12063 eV ==== 
     psi = 0.330*[#   3]+0.330*[#   4]+0.330*[#   5]+0.003*[#   6]+0.003*[#   7]+
          +0.003*[#   8]+
    |psi|^2 = 0.999
==== e(   4) =   -39.11737 eV ==== 
     psi = 0.329*[#   3]+0.329*[#   4]+0.329*[#   5]+0.004*[#   6]+0.004*[#   7]+
          +0.004*[#   8]+
    |psi|^2 = 0.999
==== e(   5) =    -5.92023 eV ==== 
     psi = 0.724*[#  14]+0.078*[#   6]+0.078*[#   7]+0.078*[#   8]+0.027*[#   2]+
          +0.006*[#   1]+0.002*[#   3]+0.002*[#   4]+0.002*[#   5]+
    |psi|^2 = 1.000
==== e(   6) =     6.12347 eV ==== 
     psi = 0.219*[#  15]+0.219*[#  16]+0.219*[#  17]+0.155*[#   2]+0.040*[#  10]+
          +0.040*[#  11]+0.040*[#  13]+0.029*[#  14]+0.009*[#   6]+0.009*[#   7]+
          +0.009*[#   8]+0.006*[#   1]+0.003*[#   9]+0.003*[#  12]+
    |psi|^2 = 0.999
==== e(   7) =     8.00150 eV ==== 
     psi = 0.226*[#  15]+0.226*[#  16]+0.226*[#  17]+0.138*[#   9]+0.138*[#  12]+
          +0.013*[#  10]+0.013*[#  11]+0.013*[#  13]+0.001*[#   2]+0.001*[#   6]+
          +0.001*[#   7]+0.001*[#   8]+
    |psi|^2 = 0.998
==== e(   8) =     8.15045 eV ==== 
     psi = 0.230*[#  15]+0.230*[#  16]+0.230*[#  17]+0.126*[#   9]+0.126*[#  12]+
          +0.016*[#  10]+0.016*[#  11]+0.016*[#  13]+0.003*[#   6]+0.003*[#   7]+
          +0.003*[#   8]+
    |psi|^2 = 0.998
==== e(   9) =    12.42247 eV ==== 
     psi = 0.308*[#  10]+0.308*[#  11]+0.308*[#  13]+0.019*[#   9]+0.019*[#  12]+
          +0.008*[#  15]+0.008*[#  16]+0.008*[#  17]+0.003*[#  14]+0.002*[#   6]+
          +0.002*[#   7]+0.002*[#   8]+0.002*[#   2]+
    |psi|^2 = 0.997
==== e(  10) =    12.66345 eV ==== 
     psi = 0.304*[#  10]+0.304*[#  11]+0.304*[#  13]+0.038*[#   9]+0.038*[#  12]+
          +0.003*[#  15]+0.003*[#  16]+0.003*[#  17]+
    |psi|^2 = 0.999
==== e(  11) =    12.82257 eV ==== 
     psi = 0.296*[#  10]+0.296*[#  11]+0.296*[#  13]+0.030*[#  15]+0.030*[#  16]+
          +0.030*[#  17]+0.007*[#   2]+0.005*[#  14]+0.002*[#   6]+0.002*[#   7]+
          +0.002*[#   8]+
    |psi|^2 = 0.998
==== e(  12) =    14.24667 eV ==== 
     psi = 0.335*[#   9]+0.335*[#  12]+0.096*[#  15]+0.096*[#  16]+0.096*[#  17]+
          +0.012*[#  10]+0.012*[#  11]+0.012*[#  13]+0.002*[#   6]+0.002*[#   7]+
          +0.002*[#   8]+
    |psi|^2 = 0.998
==== e(  13) =    14.53506 eV ==== 
     psi = 0.334*[#   9]+0.334*[#  12]+0.098*[#  15]+0.098*[#  16]+0.098*[#  17]+
          +0.009*[#  14]+0.005*[#  10]+0.005*[#  11]+0.005*[#  13]+0.002*[#   6]+
          +0.002*[#   7]+0.002*[#   8]+0.002*[#   2]+
    |psi|^2 = 0.997
==== e(  14) =    18.86009 eV ==== 
     psi = 0.209*[#  14]+0.158*[#   6]+0.158*[#   7]+0.158*[#   8]+0.094*[#   2]+
          +0.054*[#  15]+0.054*[#  16]+0.054*[#  17]+0.014*[#   1]+0.003*[#   9]+
          +0.003*[#  12]+0.003*[#   3]+0.003*[#   4]+0.003*[#   5]+
    |psi|^2 = 0.968
==== e(  15) =    23.97649 eV ==== 
     psi = 0.553*[#   2]+0.050*[#   6]+0.050*[#   7]+0.050*[#   8]+0.025*[#  15]+
          +0.025*[#  16]+0.025*[#  17]+0.023*[#   1]+0.003*[#  14]+0.003*[#  10]+
          +0.003*[#  11]+0.003*[#  13]+
    |psi|^2 = 0.811

 k =   0.0723898293 -0.0434338976 -0.0434338976
==== e(   1) =   -73.30617 eV ==== 
     psi = 0.905*[#   1]+0.030*[#   6]+0.030*[#   7]+0.030*[#   8]+0.002*[#   2]+
    |psi|^2 = 1.000
==== e(   2) =   -39.15656 eV ==== 
     psi = 0.330*[#   3]+0.330*[#   4]+0.330*[#   5]+0.004*[#   2]+0.001*[#   6]+
          +0.001*[#   7]+0.001*[#   8]+
    |psi|^2 = 0.998
==== e(   3) =   -39.12561 eV ==== 
     psi = 0.327*[#   3]+0.327*[#   4]+0.327*[#   5]+0.005*[#   6]+0.005*[#   7]+
          +0.005*[#   8]+
    |psi|^2 = 0.999
==== e(   4) =   -39.10473 eV ==== 
     psi = 0.328*[#   3]+0.328*[#   4]+0.328*[#   5]+0.004*[#   6]+0.004*[#   7]+
          +0.004*[#   8]+
    |psi|^2 = 0.999
==== e(   5) =    -6.35360 eV ==== 
     psi = 0.648*[#  14]+0.091*[#   2]+0.080*[#   6]+0.080*[#   7]+0.080*[#   8]+
          +0.014*[#   1]+0.001*[#   3]+0.001*[#   4]+0.001*[#   5]+
    |psi|^2 = 1.000
==== e(   6) =     7.43077 eV ==== 
     psi = 0.231*[#  15]+0.231*[#  16]+0.231*[#  17]+0.108*[#   2]+0.050*[#  14]+
          +0.028*[#  10]+0.028*[#  11]+0.028*[#  13]+0.019*[#   9]+0.019*[#  12]+
          +0.006*[#   6]+0.006*[#   7]+0.006*[#   8]+0.006*[#   1]+
    |psi|^2 = 0.998
==== e(   7) =     8.62496 eV ==== 
     psi = 0.242*[#  15]+0.242*[#  16]+0.242*[#  17]+0.107*[#   9]+0.107*[#  12]+
          +0.015*[#  10]+0.015*[#  11]+0.015*[#  13]+0.005*[#   2]+0.002*[#   6]+
          +0.002*[#   7]+0.002*[#   8]+
    |psi|^2 = 0.998
==== e(   8) =     8.82522 eV ==== 
     psi = 0.249*[#  15]+0.249*[#  16]+0.249*[#  17]+0.091*[#   9]+0.091*[#  12]+
          +0.019*[#  10]+0.019*[#  11]+0.019*[#  13]+0.004*[#   6]+0.004*[#   7]+
          +0.004*[#   8]+
    |psi|^2 = 0.998
==== e(   9) =    12.04287 eV ==== 
     psi = 0.311*[#  10]+0.311*[#  11]+0.311*[#  13]+0.013*[#   9]+0.013*[#  12]+
          +0.009*[#  15]+0.009*[#  16]+0.009*[#  17]+0.003*[#  14]+0.002*[#   2]+
          +0.002*[#   6]+0.002*[#   7]+0.002*[#   8]+
    |psi|^2 = 0.996
==== e(  10) =    12.35915 eV ==== 
     psi = 0.288*[#  10]+0.288*[#  11]+0.288*[#  13]+0.061*[#   9]+0.061*[#  12]+
          +0.003*[#  15]+0.003*[#  16]+0.003*[#  17]+0.001*[#   6]+0.001*[#   7]+
          +0.001*[#   8]+
    |psi|^2 = 0.998
==== e(  11) =    12.45432 eV ==== 
     psi = 0.302*[#  10]+0.302*[#  11]+0.302*[#  13]+0.022*[#  15]+0.022*[#  16]+
          +0.022*[#  17]+0.009*[#  14]+0.005*[#   2]+0.003*[#   6]+0.003*[#   7]+
          +0.003*[#   8]+0.001*[#   1]+
    |psi|^2 = 0.997
==== e(  12) =    13.37076 eV ==== 
     psi = 0.347*[#   9]+0.347*[#  12]+0.076*[#  15]+0.076*[#  16]+0.076*[#  17]+
          +0.024*[#  10]+0.024*[#  11]+0.024*[#  13]+0.001*[#   6]+0.001*[#   7]+
          +0.001*[#   8]+
    |psi|^2 = 0.998
==== e(  13) =    13.78954 eV ==== 
     psi = 0.354*[#   9]+0.354*[#  12]+0.082*[#  15]+0.082*[#  16]+0.082*[#  17]+
          +0.014*[#  14]+0.009*[#   2]+0.004*[#  10]+0.004*[#  11]+0.004*[#  13]+
          +0.003*[#   6]+0.003*[#   7]+0.003*[#   8]+
    |psi|^2 = 0.997
==== e(  14) =    17.28595 eV ==== 
     psi = 0.255*[#  14]+0.218*[#   2]+0.093*[#   6]+0.093*[#   7]+0.093*[#   8]+
          +0.068*[#  15]+0.068*[#  16]+0.068*[#  17]+0.018*[#   1]+0.007*[#   9]+
          +0.007*[#  12]+0.001*[#   3]+0.001*[#   4]+0.001*[#   5]+
    |psi|^2 = 0.992
==== e(  15) =    25.91271 eV ==== 
     psi = 0.236*[#   2]+0.080*[#   6]+0.080*[#   7]+0.080*[#   8]+0.021*[#   1]+
          +0.005*[#  15]+0.005*[#  16]+0.005*[#  17]+0.004*[#  10]+0.004*[#  11]+
          +0.004*[#  13]+0.004*[#  14]+0.001*[#   3]+0.001*[#   4]+0.001*[#   5]+
    |psi|^2 = 0.531

 k =   0.0434338976 -0.0144779659 -0.0144779659
==== e(   1) =   -73.30401 eV ==== 
     psi = 0.924*[#   1]+0.024*[#   6]+0.024*[#   7]+0.024*[#   8]+0.003*[#   2]+
    |psi|^2 = 1.000
==== e(   2) =   -39.13515 eV ==== 
     psi = 0.329*[#   3]+0.329*[#   4]+0.329*[#   5]+0.005*[#   2]+0.001*[#   6]+
          +0.001*[#   7]+0.001*[#   8]+
    |psi|^2 = 0.999
==== e(   3) =   -39.10073 eV ==== 
     psi = 0.326*[#   3]+0.326*[#   4]+0.326*[#   5]+0.006*[#   6]+0.006*[#   7]+
          +0.006*[#   8]+
    |psi|^2 = 0.999
==== e(   4) =   -39.08184 eV ==== 
     psi = 0.326*[#   3]+0.326*[#   4]+0.326*[#   5]+0.006*[#   6]+0.006*[#   7]+
          +0.006*[#   8]+
    |psi|^2 = 0.999
==== e(   5) =    -6.70427 eV ==== 
     psi = 0.627*[#  14]+0.213*[#   2]+0.048*[#   6]+0.048*[#   7]+0.048*[#   8]+
          +0.014*[#   1]+
    |psi|^2 = 1.000
==== e(   6) =     8.82594 eV ==== 
     psi = 0.261*[#  15]+0.261*[#  16]+0.261*[#  17]+0.055*[#   9]+0.055*[#  12]+
          +0.053*[#   2]+0.029*[#  14]+0.006*[#  10]+0.006*[#  11]+0.006*[#  13]+
          +0.002*[#   1]+
    |psi|^2 = 0.997
==== e(   7) =     9.53514 eV ==== 
     psi = 0.290*[#  15]+0.290*[#  16]+0.290*[#  17]+0.024*[#   9]+0.024*[#  12]+
          +0.019*[#  10]+0.019*[#  11]+0.019*[#  13]+0.005*[#   2]+0.004*[#   6]+
          +0.004*[#   7]+0.004*[#   8]+0.002*[#  14]+
    |psi|^2 = 0.997
==== e(   8) =     9.59214 eV ==== 
     psi = 0.293*[#  15]+0.293*[#  16]+0.293*[#  17]+0.023*[#   9]+0.023*[#  12]+
          +0.019*[#  10]+0.019*[#  11]+0.019*[#  13]+0.005*[#   6]+0.005*[#   7]+
          +0.005*[#   8]+
    |psi|^2 = 0.997
==== e(   9) =    11.80269 eV ==== 
     psi = 0.327*[#  10]+0.327*[#  11]+0.327*[#  13]+0.003*[#  15]+0.003*[#  16]+
          +0.003*[#  17]+0.001*[#   9]+0.001*[#  12]+
    |psi|^2 = 0.994
==== e(  10) =    12.08144 eV ==== 
     psi = 0.287*[#  10]+0.287*[#  11]+0.287*[#  13]+0.054*[#   9]+0.054*[#  12]+
          +0.009*[#  15]+0.009*[#  16]+0.009*[#  17]+
    |psi|^2 = 0.997
==== e(  11) =    12.11658 eV ==== 
     psi = 0.309*[#  10]+0.309*[#  11]+0.309*[#  13]+0.020*[#  15]+0.020*[#  16]+
          +0.020*[#  17]+0.003*[#  14]+0.002*[#   2]+
    |psi|^2 = 0.996
==== e(  12) =    12.46334 eV ==== 
     psi = 0.421*[#   9]+0.421*[#  12]+0.026*[#  10]+0.026*[#  11]+0.026*[#  13]+
          +0.025*[#  15]+0.025*[#  16]+0.025*[#  17]+
    |psi|^2 = 0.997
==== e(  13) =    12.87351 eV ==== 
     psi = 0.410*[#   9]+0.410*[#  12]+0.043*[#  15]+0.043*[#  16]+0.043*[#  17]+
          +0.023*[#   2]+0.019*[#  14]+0.001*[#   6]+0.001*[#   7]+0.001*[#   8]+
    |psi|^2 = 0.997
==== e(  14) =    15.61739 eV ==== 
     psi = 0.397*[#   2]+0.307*[#  14]+0.046*[#   6]+0.046*[#   7]+0.046*[#   8]+
          +0.040*[#  15]+0.040*[#  16]+0.040*[#  17]+0.018*[#   1]+0.008*[#   9]+
          +0.008*[#  12]+
    |psi|^2 = 0.996
==== e(  15) =    28.01074 eV ==== 
     psi = 0.032*[#   6]+0.032*[#   7]+0.032*[#   8]+0.012*[#   2]+0.002*[#  10]+
          +0.002*[#  11]+0.002*[#  13]+0.002*[#   1]+
    |psi|^2 = 0.121

 k =   0.0144779659  0.0144779659  0.0723898293
==== e(   1) =   -73.30211 eV ==== 
     psi = 0.906*[#   1]+0.031*[#   6]+0.031*[#   7]+0.031*[#   8]+
    |psi|^2 = 1.000
==== e(   2) =   -39.13683 eV ==== 
     psi = 0.330*[#   3]+0.330*[#   4]+0.330*[#   5]+0.005*[#   2]+
    |psi|^2 = 0.998
==== e(   3) =   -39.09743 eV ==== 
     psi = 0.328*[#   3]+0.328*[#   4]+0.328*[#   5]+0.004*[#   6]+0.004*[#   7]+
          +0.004*[#   8]+0.001*[#  15]+0.001*[#  16]+0.001*[#  17]+
    |psi|^2 = 0.998
==== e(   4) =   -39.09084 eV ==== 
     psi = 0.328*[#   3]+0.328*[#   4]+0.328*[#   5]+0.004*[#   6]+0.004*[#   7]+
          +0.004*[#   8]+0.001*[#  15]+0.001*[#  16]+0.001*[#  17]+
    |psi|^2 = 0.998
==== e(   5) =    -6.52625 eV ==== 
     psi = 0.635*[#  14]+0.136*[#   2]+0.070*[#   6]+0.070*[#   7]+0.070*[#   8]+
          +0.015*[#   1]+0.001*[#   9]+0.001*[#  12]+
    |psi|^2 = 1.000
==== e(   6) =     7.92278 eV ==== 
     psi = 0.234*[#  15]+0.234*[#  16]+0.234*[#  17]+0.080*[#   9]+0.080*[#  12]+
          +0.059*[#   2]+0.041*[#  14]+0.007*[#   6]+0.007*[#   7]+0.007*[#   8]+
          +0.005*[#   1]+0.003*[#  10]+0.003*[#  11]+0.003*[#  13]+
    |psi|^2 = 0.997
==== e(   7) =     9.30241 eV ==== 
     psi = 0.279*[#  15]+0.279*[#  16]+0.279*[#  17]+0.032*[#  10]+0.032*[#  11]+
          +0.032*[#  13]+0.018*[#   9]+0.018*[#  12]+0.007*[#   6]+0.007*[#   7]+
          +0.007*[#   8]+0.005*[#   2]+0.002*[#  14]+
    |psi|^2 = 0.998
==== e(   8) =     9.37006 eV ==== 
     psi = 0.282*[#  15]+0.282*[#  16]+0.282*[#  17]+0.030*[#  10]+0.030*[#  11]+
          +0.030*[#  13]+0.019*[#   9]+0.019*[#  12]+0.008*[#   6]+0.008*[#   7]+
          +0.008*[#   8]+
    |psi|^2 = 0.998
==== e(   9) =    11.65224 eV ==== 
     psi = 0.326*[#  10]+0.326*[#  11]+0.326*[#  13]+0.004*[#  15]+0.004*[#  16]+
          +0.004*[#  17]+
    |psi|^2 = 0.992
==== e(  10) =    12.31691 eV ==== 
     psi = 0.234*[#   9]+0.234*[#  12]+0.173*[#  10]+0.173*[#  11]+0.173*[#  13]+
          +0.003*[#  15]+0.003*[#  16]+0.003*[#  17]+
    |psi|^2 = 0.998
==== e(  11) =    12.43825 eV ==== 
     psi = 0.299*[#  10]+0.299*[#  11]+0.299*[#  13]+0.029*[#  15]+0.029*[#  16]+
          +0.029*[#  17]+0.004*[#  14]+0.003*[#   2]+0.002*[#   9]+0.002*[#  12]+
          +0.001*[#   6]+0.001*[#   7]+0.001*[#   8]+
    |psi|^2 = 0.998
==== e(  12) =    12.60463 eV ==== 
     psi = 0.247*[#   9]+0.247*[#  12]+0.128*[#  10]+0.128*[#  11]+0.128*[#  13]+
          +0.040*[#  15]+0.040*[#  16]+0.040*[#  17]+
    |psi|^2 = 0.998
==== e(  13) =    13.21511 eV ==== 
     psi = 0.374*[#   9]+0.374*[#  12]+0.058*[#  14]+0.051*[#   2]+0.039*[#  15]+
          +0.039*[#  16]+0.039*[#  17]+0.006*[#   6]+0.006*[#   7]+0.006*[#   8]+
          +0.003*[#   1]+0.001*[#  10]+0.001*[#  11]+0.001*[#  13]+
    |psi|^2 = 0.997
==== e(  14) =    16.74604 eV ==== 
     psi = 0.272*[#   2]+0.245*[#  14]+0.072*[#  15]+0.072*[#  16]+0.072*[#  17]+
          +0.066*[#   6]+0.066*[#   7]+0.066*[#   8]+0.023*[#   9]+0.023*[#  12]+
          +0.016*[#   1]+
    |psi|^2 = 0.996
==== e(  15) =    27.13164 eV ==== 
     psi = 0.040*[#   6]+0.040*[#   7]+0.040*[#   8]+0.009*[#   2]+0.003*[#  10]+
          +0.003*[#  11]+0.003*[#  13]+
    |psi|^2 = 0.145

 k =  -0.0144779659  0.0434338976  0.1013457610
==== e(   1) =   -73.30508 eV ==== 
     psi = 0.911*[#   1]+0.027*[#   6]+0.027*[#   7]+0.027*[#   8]+0.005*[#   2]+
    |psi|^2 = 1.000
==== e(   2) =   -39.16950 eV ==== 
     psi = 0.329*[#   3]+0.329*[#   4]+0.329*[#   5]+0.003*[#   2]+0.002*[#   6]+
          +0.002*[#   7]+0.002*[#   8]+
    |psi|^2 = 0.998
==== e(   3) =   -39.12871 eV ==== 
     psi = 0.328*[#   3]+0.328*[#   4]+0.328*[#   5]+0.004*[#   6]+0.004*[#   7]+
          +0.004*[#   8]+
    |psi|^2 = 0.999
==== e(   4) =   -39.10203 eV ==== 
     psi = 0.329*[#   3]+0.329*[#   4]+0.329*[#   5]+0.003*[#   6]+0.003*[#   7]+
          +0.003*[#   8]+0.001*[#  15]+0.001*[#  16]+0.001*[#  17]+
    |psi|^2 = 0.998
==== e(   5) =    -6.23276 eV ==== 
     psi = 0.675*[#  14]+0.076*[#   6]+0.076*[#   7]+0.076*[#   8]+0.073*[#   2]+
          +0.011*[#   1]+0.003*[#   9]+0.003*[#  12]+0.002*[#   3]+0.002*[#   4]+
          +0.002*[#   5]+
    |psi|^2 = 1.000
==== e(   6) =     7.04885 eV ==== 
     psi = 0.221*[#  15]+0.221*[#  16]+0.221*[#  17]+0.075*[#   2]+0.060*[#   9]+
          +0.060*[#  12]+0.042*[#  14]+0.019*[#   6]+0.019*[#   7]+0.019*[#   8]+
          +0.011*[#  10]+0.011*[#  11]+0.011*[#  13]+0.008*[#   1]+
    |psi|^2 = 0.998
==== e(   7) =     8.63218 eV ==== 
     psi = 0.251*[#  15]+0.251*[#  16]+0.251*[#  17]+0.081*[#   9]+0.081*[#  12]+
          +0.019*[#  10]+0.019*[#  11]+0.019*[#  13]+0.010*[#   2]+0.004*[#   6]+
          +0.004*[#   7]+0.004*[#   8]+0.002*[#  14]+
    |psi|^2 = 0.998
==== e(   8) =     8.90432 eV ==== 
     psi = 0.262*[#  15]+0.262*[#  16]+0.262*[#  17]+0.043*[#  10]+0.043*[#  11]+
          +0.043*[#  13]+0.021*[#   9]+0.021*[#  12]+0.014*[#   6]+0.014*[#   7]+
          +0.014*[#   8]+
    |psi|^2 = 0.998
==== e(   9) =    11.73552 eV ==== 
     psi = 0.313*[#  10]+0.313*[#  11]+0.313*[#  13]+0.015*[#  15]+0.015*[#  16]+
          +0.015*[#  17]+0.003*[#   9]+0.003*[#  12]+
    |psi|^2 = 0.993
==== e(  10) =    12.55509 eV ==== 
     psi = 0.218*[#   9]+0.218*[#  12]+0.184*[#  10]+0.184*[#  11]+0.184*[#  13]+
          +0.002*[#  14]+0.002*[#   2]+0.001*[#  15]+0.001*[#  16]+0.001*[#  17]+
    |psi|^2 = 0.998
==== e(  11) =    12.72530 eV ==== 
     psi = 0.297*[#  10]+0.297*[#  11]+0.297*[#  13]+0.030*[#  15]+0.030*[#  16]+
          +0.030*[#  17]+0.005*[#   9]+0.005*[#  12]+0.002*[#  14]+0.002*[#   2]+
    |psi|^2 = 0.998
==== e(  12) =    12.98841 eV ==== 
     psi = 0.235*[#   9]+0.235*[#  12]+0.123*[#  10]+0.123*[#  11]+0.123*[#  13]+
          +0.042*[#  15]+0.042*[#  16]+0.042*[#  17]+0.015*[#  14]+0.012*[#   2]+
          +0.002*[#   6]+0.002*[#   7]+0.002*[#   8]+
    |psi|^2 = 0.998
==== e(  13) =    13.84236 eV ==== 
     psi = 0.350*[#   9]+0.350*[#  12]+0.067*[#  15]+0.067*[#  16]+0.067*[#  17]+
          +0.044*[#  14]+0.020*[#   2]+0.007*[#   6]+0.007*[#   7]+0.007*[#   8]+
          +0.003*[#  10]+0.003*[#  11]+0.003*[#  13]+0.002*[#   1]+
    |psi|^2 = 0.997
==== e(  14) =    18.14945 eV ==== 
     psi = 0.212*[#   2]+0.196*[#  14]+0.089*[#   6]+0.089*[#   7]+0.089*[#   8]+
          +0.086*[#  15]+0.086*[#  16]+0.086*[#  17]+0.022*[#   9]+0.022*[#  12]+
          +0.012*[#   1]+0.001*[#   3]+0.001*[#   4]+0.001*[#   5]+
    |psi|^2 = 0.993
==== e(  15) =    25.89039 eV ==== 
     psi = 0.121*[#   6]+0.121*[#   7]+0.121*[#   8]+0.048*[#   2]+0.005*[#  10]+
          +0.005*[#  11]+0.005*[#  13]+0.005*[#  15]+0.005*[#  16]+0.005*[#  17]+
          +0.004*[#   1]+0.002*[#   3]+0.002*[#   4]+0.002*[#   5]+0.001*[#  14]+
    |psi|^2 = 0.450

 k =  -0.0434338976  0.0723898293  0.1303016927
==== e(   1) =   -73.30731 eV ==== 
     psi = 0.944*[#   1]+0.015*[#   6]+0.015*[#   7]+0.015*[#   8]+0.007*[#   2]+
          +0.001*[#  15]+0.001*[#  16]+0.001*[#  17]+
    |psi|^2 = 1.000
==== e(   2) =   -39.20845 eV ==== 
     psi = 0.328*[#   3]+0.328*[#   4]+0.328*[#   5]+0.004*[#   6]+0.004*[#   7]+
          +0.004*[#   8]+0.001*[#   2]+
    |psi|^2 = 0.998
==== e(   3) =   -39.15426 eV ==== 
     psi = 0.329*[#   3]+0.329*[#   4]+0.329*[#   5]+0.003*[#   6]+0.003*[#   7]+
          +0.003*[#   8]+
    |psi|^2 = 0.998
==== e(   4) =   -39.12101 eV ==== 
     psi = 0.330*[#   3]+0.330*[#   4]+0.330*[#   5]+0.003*[#   6]+0.003*[#   7]+
          +0.003*[#   8]+
    |psi|^2 = 0.998
==== e(   5) =    -5.87531 eV ==== 
     psi = 0.753*[#  14]+0.066*[#   6]+0.066*[#   7]+0.066*[#   8]+0.025*[#   2]+
          +0.006*[#   9]+0.006*[#  12]+0.005*[#   1]+0.002*[#   3]+0.002*[#   4]+
          +0.002*[#   5]+
    |psi|^2 = 1.000
==== e(   6) =     6.27887 eV ==== 
     psi = 0.218*[#  15]+0.218*[#  16]+0.218*[#  17]+0.115*[#   2]+0.029*[#  10]+
          +0.029*[#  11]+0.029*[#  13]+0.025*[#   6]+0.025*[#   7]+0.025*[#   8]+
          +0.023*[#  14]+0.018*[#   9]+0.018*[#  12]+0.007*[#   1]+
    |psi|^2 = 0.999
==== e(   7) =     7.93505 eV ==== 
     psi = 0.233*[#  15]+0.233*[#  16]+0.233*[#  17]+0.106*[#   9]+0.106*[#  12]+
          +0.018*[#  10]+0.018*[#  11]+0.018*[#  13]+0.008*[#   2]+0.007*[#   6]+
          +0.007*[#   7]+0.007*[#   8]+
    |psi|^2 = 0.998
==== e(   8) =     8.26666 eV ==== 
     psi = 0.241*[#  15]+0.241*[#  16]+0.241*[#  17]+0.091*[#   9]+0.091*[#  12]+
          +0.021*[#  10]+0.021*[#  11]+0.021*[#  13]+0.010*[#   6]+0.010*[#   7]+
          +0.010*[#   8]+
    |psi|^2 = 0.998
==== e(   9) =    12.10108 eV ==== 
     psi = 0.300*[#  10]+0.300*[#  11]+0.300*[#  13]+0.018*[#   9]+0.018*[#  12]+
          +0.015*[#  15]+0.015*[#  16]+0.015*[#  17]+0.005*[#  14]+0.003*[#   2]+
          +0.002*[#   6]+0.002*[#   7]+0.002*[#   8]+
    |psi|^2 = 0.995
==== e(  10) =    12.77594 eV ==== 
     psi = 0.284*[#  10]+0.284*[#  11]+0.284*[#  13]+0.068*[#   9]+0.068*[#  12]+
          +0.002*[#  15]+0.002*[#  16]+0.002*[#  17]+0.001*[#  14]+
    |psi|^2 = 0.999
==== e(  11) =    12.95547 eV ==== 
     psi = 0.303*[#  10]+0.303*[#  11]+0.303*[#  13]+0.027*[#  15]+0.027*[#  16]+
          +0.027*[#  17]+0.005*[#   2]+0.001*[#   9]+0.001*[#  12]+
    |psi|^2 = 0.999
==== e(  12) =    13.70243 eV ==== 
     psi = 0.331*[#   9]+0.331*[#  12]+0.067*[#  15]+0.067*[#  16]+0.067*[#  17]+
          +0.033*[#  10]+0.033*[#  11]+0.033*[#  13]+0.015*[#  14]+0.006*[#   2]+
          +0.004*[#   6]+0.004*[#   7]+0.004*[#   8]+
    |psi|^2 = 0.998
==== e(  13) =    14.40333 eV ==== 
     psi = 0.347*[#   9]+0.347*[#  12]+0.084*[#  15]+0.084*[#  16]+0.084*[#  17]+
          +0.023*[#  14]+0.006*[#   6]+0.006*[#   7]+0.006*[#   8]+0.003*[#  10]+
          +0.003*[#  11]+0.003*[#  13]+
    |psi|^2 = 0.997
==== e(  14) =    19.66878 eV ==== 
     psi = 0.160*[#   2]+0.153*[#  14]+0.138*[#   6]+0.138*[#   7]+0.138*[#   8]+
          +0.070*[#  15]+0.070*[#  16]+0.070*[#  17]+0.011*[#   9]+0.011*[#  12]+
          +0.007*[#   1]+0.002*[#   3]+0.002*[#   4]+0.002*[#   5]+0.001*[#  10]+
          +0.001*[#  11]+0.001*[#  13]+
    |psi|^2 = 0.973
==== e(  15) =    24.07247 eV ==== 
     psi = 0.405*[#   2]+0.099*[#   6]+0.099*[#   7]+0.099*[#   8]+0.021*[#  15]+
          +0.021*[#  16]+0.021*[#  17]+0.018*[#   1]+0.006*[#  14]+0.004*[#  10]+
          +0.004*[#  11]+0.004*[#  13]+
    |psi|^2 = 0.804

 k =   0.1592576244 -0.1303016927 -0.0723898293
==== e(   1) =   -73.30851 eV ==== 
     psi = 0.982*[#   1]+0.005*[#   2]+0.003*[#  15]+0.003*[#  16]+0.003*[#  17]+
          +0.002*[#   6]+0.002*[#   7]+0.002*[#   8]+
    |psi|^2 = 1.000
==== e(   2) =   -39.23732 eV ==== 
     psi = 0.329*[#   3]+0.329*[#   4]+0.329*[#   5]+0.003*[#   6]+0.003*[#   7]+
          +0.003*[#   8]+0.001*[#  14]+
    |psi|^2 = 0.998
==== e(   3) =   -39.14737 eV ==== 
     psi = 0.330*[#   3]+0.330*[#   4]+0.330*[#   5]+0.002*[#   6]+0.002*[#   7]+
          +0.002*[#   8]+
    |psi|^2 = 0.998
==== e(   4) =   -39.13840 eV ==== 
     psi = 0.330*[#   3]+0.330*[#   4]+0.330*[#   5]+0.002*[#   6]+0.002*[#   7]+
          +0.002*[#   8]+
    |psi|^2 = 0.999
==== e(   5) =    -5.67590 eV ==== 
     psi = 0.811*[#  14]+0.056*[#   6]+0.056*[#   7]+0.056*[#   8]+0.008*[#   9]+
          +0.008*[#  12]+0.002*[#   3]+0.002*[#   4]+0.002*[#   5]+
    |psi|^2 = 1.000
==== e(   6) =     5.88689 eV ==== 
     psi = 0.223*[#  15]+0.223*[#  16]+0.223*[#  17]+0.150*[#   2]+0.040*[#  10]+
          +0.040*[#  11]+0.040*[#  13]+0.017*[#   6]+0.017*[#   7]+0.017*[#   8]+
          +0.005*[#   1]+
    |psi|^2 = 1.000
==== e(   7) =     7.68285 eV ==== 
     psi = 0.229*[#  15]+0.229*[#  16]+0.229*[#  17]+0.103*[#   9]+0.103*[#  12]+
          +0.017*[#  10]+0.017*[#  11]+0.017*[#  13]+0.017*[#   6]+0.017*[#   7]+
          +0.017*[#   8]+
    |psi|^2 = 0.998
==== e(   8) =     7.90852 eV ==== 
     psi = 0.230*[#  15]+0.230*[#  16]+0.230*[#  17]+0.132*[#   9]+0.132*[#  12]+
          +0.009*[#  10]+0.009*[#  11]+0.009*[#  13]+0.005*[#   6]+0.005*[#   7]+
          +0.005*[#   8]+
    |psi|^2 = 0.998
==== e(   9) =    12.52678 eV ==== 
     psi = 0.296*[#  10]+0.296*[#  11]+0.296*[#  13]+0.034*[#   9]+0.034*[#  12]+
          +0.009*[#  15]+0.009*[#  16]+0.009*[#  17]+0.005*[#  14]+0.002*[#   6]+
          +0.002*[#   7]+0.002*[#   8]+0.001*[#   2]+
    |psi|^2 = 0.998
==== e(  10) =    12.77750 eV ==== 
     psi = 0.314*[#  10]+0.314*[#  11]+0.314*[#  13]+0.019*[#   9]+0.019*[#  12]+
          +0.006*[#  15]+0.006*[#  16]+0.006*[#  17]+
    |psi|^2 = 0.999
==== e(  11) =    13.00351 eV ==== 
     psi = 0.294*[#  10]+0.294*[#  11]+0.294*[#  13]+0.033*[#  15]+0.033*[#  16]+
          +0.033*[#  17]+0.008*[#   2]+0.005*[#   9]+0.005*[#  12]+
    |psi|^2 = 0.999
==== e(  12) =    14.20296 eV ==== 
     psi = 0.344*[#   9]+0.344*[#  12]+0.071*[#  15]+0.071*[#  16]+0.071*[#  17]+
          +0.027*[#  14]+0.015*[#  10]+0.015*[#  11]+0.015*[#  13]+0.007*[#   6]+
          +0.007*[#   7]+0.007*[#   8]+
    |psi|^2 = 0.997
==== e(  13) =    14.56617 eV ==== 
     psi = 0.348*[#   9]+0.348*[#  12]+0.093*[#  15]+0.093*[#  16]+0.093*[#  17]+
          +0.005*[#  10]+0.005*[#  11]+0.005*[#  13]+0.003*[#   2]+0.002*[#   6]+
          +0.002*[#   7]+0.002*[#   8]+
    |psi|^2 = 0.998
==== e(  14) =    20.70793 eV ==== 
     psi = 0.227*[#   6]+0.227*[#   7]+0.227*[#   8]+0.131*[#  14]+0.023*[#  15]+
          +0.023*[#  16]+0.023*[#  17]+0.013*[#   2]+0.006*[#   9]+0.006*[#  12]+
          +0.004*[#  10]+0.004*[#  11]+0.004*[#  13]+
    |psi|^2 = 0.920
==== e(  15) =    22.79171 eV ==== 
     psi = 0.695*[#   2]+0.059*[#  15]+0.059*[#  16]+0.059*[#  17]+0.025*[#   6]+
          +0.025*[#   7]+0.025*[#   8]+0.008*[#   1]+0.002*[#  10]+0.002*[#  11]+
          +0.002*[#  13]+
    |psi|^2 = 0.965

 k =   0.1303016927 -0.1013457610 -0.0434338976
==== e(   1) =   -73.30698 eV ==== 
     psi = 0.959*[#   1]+0.009*[#   6]+0.009*[#   7]+0.009*[#   8]+0.006*[#   2]+
          +0.002*[#  15]+0.002*[#  16]+0.002*[#  17]+
    |psi|^2 = 1.000
==== e(   2) =   -39.21781 eV ==== 
     psi = 0.328*[#   3]+0.328*[#   4]+0.328*[#   5]+0.003*[#   6]+0.003*[#   7]+
          +0.003*[#   8]+
    |psi|^2 = 0.998
==== e(   3) =   -39.14237 eV ==== 
     psi = 0.330*[#   3]+0.330*[#   4]+0.330*[#   5]+0.002*[#   6]+0.002*[#   7]+
          +0.002*[#   8]+0.001*[#  15]+0.001*[#  16]+0.001*[#  17]+
    |psi|^2 = 0.998
==== e(   4) =   -39.13107 eV ==== 
     psi = 0.329*[#   3]+0.329*[#   4]+0.329*[#   5]+0.003*[#   6]+0.003*[#   7]+
          +0.003*[#   8]+
    |psi|^2 = 0.999
==== e(   5) =    -5.77110 eV ==== 
     psi = 0.778*[#  14]+0.063*[#   6]+0.063*[#   7]+0.063*[#   8]+0.011*[#   2]+
          +0.006*[#   9]+0.006*[#  12]+0.003*[#   1]+0.002*[#   3]+0.002*[#   4]+
          +0.002*[#   5]+
    |psi|^2 = 1.000
==== e(   6) =     6.06886 eV ==== 
     psi = 0.220*[#  15]+0.220*[#  16]+0.220*[#  17]+0.136*[#   2]+0.034*[#  10]+
          +0.034*[#  11]+0.034*[#  13]+0.018*[#   6]+0.018*[#   7]+0.018*[#   8]+
          +0.014*[#  14]+0.013*[#   9]+0.013*[#  12]+0.006*[#   1]+
    |psi|^2 = 0.999
==== e(   7) =     7.83478 eV ==== 
     psi = 0.229*[#  15]+0.229*[#  16]+0.229*[#  17]+0.116*[#   9]+0.116*[#  12]+
          +0.015*[#  10]+0.015*[#  11]+0.015*[#  13]+0.009*[#   6]+0.009*[#   7]+
          +0.009*[#   8]+0.002*[#   2]+
    |psi|^2 = 0.998
==== e(   8) =     7.98516 eV ==== 
     psi = 0.234*[#  15]+0.234*[#  16]+0.234*[#  17]+0.097*[#   9]+0.097*[#  12]+
          +0.021*[#  10]+0.021*[#  11]+0.021*[#  13]+0.012*[#   6]+0.012*[#   7]+
          +0.012*[#   8]+
    |psi|^2 = 0.998
==== e(   9) =    12.44881 eV ==== 
     psi = 0.301*[#  10]+0.301*[#  11]+0.301*[#  13]+0.027*[#   9]+0.027*[#  12]+
          +0.011*[#  15]+0.011*[#  16]+0.011*[#  17]+0.004*[#  14]+0.002*[#   2]+
          +0.001*[#   6]+0.001*[#   7]+0.001*[#   8]+
    |psi|^2 = 0.997
==== e(  10) =    12.73602 eV ==== 
     psi = 0.289*[#  10]+0.289*[#  11]+0.289*[#  13]+0.057*[#   9]+0.057*[#  12]+
          +0.004*[#  14]+0.003*[#  15]+0.003*[#  16]+0.003*[#  17]+
    |psi|^2 = 0.999
==== e(  11) =    12.94484 eV ==== 
     psi = 0.296*[#  10]+0.296*[#  11]+0.296*[#  13]+0.034*[#  15]+0.034*[#  16]+
          +0.034*[#  17]+0.007*[#   2]+0.001*[#   9]+0.001*[#  12]+
    |psi|^2 = 0.999
==== e(  12) =    13.79241 eV ==== 
     psi = 0.330*[#   9]+0.330*[#  12]+0.063*[#  15]+0.063*[#  16]+0.063*[#  17]+
          +0.033*[#  10]+0.033*[#  11]+0.033*[#  13]+0.023*[#  14]+0.010*[#   2]+
          +0.005*[#   6]+0.005*[#   7]+0.005*[#   8]+
    |psi|^2 = 0.998
==== e(  13) =    14.73542 eV ==== 
     psi = 0.344*[#   9]+0.344*[#  12]+0.099*[#  15]+0.099*[#  16]+0.099*[#  17]+
          +0.004*[#  14]+0.002*[#  10]+0.002*[#  11]+0.002*[#  13]+0.001*[#   6]+
          +0.001*[#   7]+0.001*[#   8]+
    |psi|^2 = 0.998
==== e(  14) =    20.14251 eV ==== 
     psi = 0.171*[#   6]+0.171*[#   7]+0.171*[#   8]+0.145*[#  14]+0.104*[#   2]+
          +0.054*[#  15]+0.054*[#  16]+0.054*[#  17]+0.008*[#   9]+0.008*[#  12]+
          +0.005*[#   1]+0.002*[#  10]+0.002*[#  11]+0.002*[#  13]+0.001*[#   3]+
          +0.001*[#   4]+0.001*[#   5]+
    |psi|^2 = 0.957
==== e(  15) =    23.51577 eV ==== 
     psi = 0.496*[#   2]+0.088*[#   6]+0.088*[#   7]+0.088*[#   8]+0.033*[#  15]+
          +0.033*[#  16]+0.033*[#  17]+0.014*[#   1]+0.004*[#  14]+0.003*[#  10]+
          +0.003*[#  11]+0.003*[#  13]+
    |psi|^2 = 0.890

 k =   0.1013457610 -0.0723898293 -0.0144779659
==== e(   1) =   -73.30781 eV ==== 
     psi = 0.919*[#   1]+0.024*[#   6]+0.024*[#   7]+0.024*[#   8]+0.006*[#   2]+
          +0.001*[#  15]+0.001*[#  16]+0.001*[#  17]+
    |psi|^2 = 1.000
==== e(   2) =   -39.18196 eV ==== 
     psi = 0.329*[#   3]+0.329*[#   4]+0.329*[#   5]+0.003*[#   6]+0.003*[#   7]+
          +0.003*[#   8]+0.002*[#   2]+
    |psi|^2 = 0.998
==== e(   3) =   -39.13783 eV ==== 
     psi = 0.328*[#   3]+0.328*[#   4]+0.328*[#   5]+0.005*[#   6]+0.005*[#   7]+
          +0.005*[#   8]+
    |psi|^2 = 0.999
==== e(   4) =   -39.13017 eV ==== 
     psi = 0.329*[#   3]+0.329*[#   4]+0.329*[#   5]+0.002*[#   6]+0.002*[#   7]+
          +0.002*[#   8]+0.001*[#  15]+0.001*[#  16]+0.001*[#  17]+
    |psi|^2 = 0.998
==== e(   5) =    -6.09877 eV ==== 
     psi = 0.695*[#  14]+0.078*[#   6]+0.078*[#   7]+0.078*[#   8]+0.051*[#   2]+
          +0.009*[#   1]+0.003*[#   9]+0.003*[#  12]+0.002*[#   3]+0.002*[#   4]+
          +0.002*[#   5]+
    |psi|^2 = 1.000
==== e(   6) =     6.74813 eV ==== 
     psi = 0.221*[#  15]+0.221*[#  16]+0.221*[#  17]+0.105*[#   2]+0.041*[#  14]+
          +0.037*[#   9]+0.037*[#  12]+0.021*[#  10]+0.021*[#  11]+0.021*[#  13]+
          +0.016*[#   6]+0.016*[#   7]+0.016*[#   8]+0.007*[#   1]+
    |psi|^2 = 0.998
==== e(   7) =     8.20896 eV ==== 
     psi = 0.233*[#  15]+0.233*[#  16]+0.233*[#  17]+0.140*[#   9]+0.140*[#  12]+
          +0.004*[#  10]+0.004*[#  11]+0.004*[#  13]+0.004*[#   2]+
    |psi|^2 = 0.998
==== e(   8) =     8.54633 eV ==== 
     psi = 0.250*[#  15]+0.250*[#  16]+0.250*[#  17]+0.053*[#  10]+0.053*[#  11]+
          +0.053*[#  13]+0.019*[#   6]+0.019*[#   7]+0.019*[#   8]+0.014*[#   9]+
          +0.014*[#  12]+
    |psi|^2 = 0.998
==== e(   9) =    12.11776 eV ==== 
     psi = 0.312*[#  10]+0.312*[#  11]+0.312*[#  13]+0.015*[#  15]+0.015*[#  16]+
          +0.015*[#  17]+0.006*[#   9]+0.006*[#  12]+0.001*[#  14]+
    |psi|^2 = 0.996
==== e(  10) =    12.58808 eV ==== 
     psi = 0.235*[#  10]+0.235*[#  11]+0.235*[#  13]+0.117*[#   9]+0.117*[#  12]+
          +0.015*[#  15]+0.015*[#  16]+0.015*[#  17]+0.006*[#  14]+0.004*[#   2]+
    |psi|^2 = 0.998
==== e(  11) =    12.75610 eV ==== 
     psi = 0.264*[#  10]+0.264*[#  11]+0.264*[#  13]+0.062*[#   9]+0.062*[#  12]+
          +0.027*[#  15]+0.027*[#  16]+0.027*[#  17]+
    |psi|^2 = 0.999
==== e(  12) =    13.11756 eV ==== 
     psi = 0.261*[#   9]+0.261*[#  12]+0.102*[#  10]+0.102*[#  11]+0.102*[#  13]+
          +0.036*[#  15]+0.036*[#  16]+0.036*[#  17]+0.026*[#  14]+0.023*[#   2]+
          +0.003*[#   6]+0.003*[#   7]+0.003*[#   8]+
    |psi|^2 = 0.998
==== e(  13) =    14.40865 eV ==== 
     psi = 0.345*[#   9]+0.345*[#  12]+0.095*[#  15]+0.095*[#  16]+0.095*[#  17]+
          +0.010*[#  14]+0.002*[#   6]+0.002*[#   7]+0.002*[#   8]+0.002*[#   2]+
    |psi|^2 = 0.997
==== e(  14) =    18.60800 eV ==== 
     psi = 0.196*[#  14]+0.180*[#   2]+0.110*[#   6]+0.110*[#   7]+0.110*[#   8]+
          +0.079*[#  15]+0.079*[#  16]+0.079*[#  17]+0.013*[#   9]+0.013*[#  12]+
          +0.012*[#   1]+0.002*[#   3]+0.002*[#   4]+0.002*[#   5]+
    |psi|^2 = 0.988
==== e(  15) =    25.24622 eV ==== 
     psi = 0.177*[#   6]+0.177*[#   7]+0.177*[#   8]+0.078*[#   2]+0.010*[#  15]+
          +0.010*[#  16]+0.010*[#  17]+0.006*[#  10]+0.006*[#  11]+0.006*[#  13]+
          +0.005*[#   1]+0.002*[#   3]+0.002*[#   4]+0.002*[#   5]+0.001*[#  14]+
    |psi|^2 = 0.669

 k =   0.0723898293 -0.0434338976  0.0144779659
==== e(   1) =   -73.30672 eV ==== 
     psi = 0.904*[#   1]+0.031*[#   6]+0.031*[#   7]+0.031*[#   8]+0.001*[#   2]+
    |psi|^2 = 1.000
==== e(   2) =   -39.13860 eV ==== 
     psi = 0.330*[#   3]+0.330*[#   4]+0.330*[#   5]+0.004*[#   2]+0.001*[#   6]+
          +0.001*[#   7]+0.001*[#   8]+
    |psi|^2 = 0.998
==== e(   3) =   -39.12958 eV ==== 
     psi = 0.327*[#   3]+0.327*[#   4]+0.327*[#   5]+0.005*[#   6]+0.005*[#   7]+
          +0.005*[#   8]+
    |psi|^2 = 0.999
==== e(   4) =   -39.11421 eV ==== 
     psi = 0.328*[#   3]+0.328*[#   4]+0.328*[#   5]+0.004*[#   6]+0.004*[#   7]+
          +0.004*[#   8]+
    |psi|^2 = 0.998
==== e(   5) =    -6.43821 eV ==== 
     psi = 0.640*[#  14]+0.111*[#   2]+0.076*[#   6]+0.076*[#   7]+0.076*[#   8]+
          +0.014*[#   1]+0.001*[#   3]+0.001*[#   4]+0.001*[#   5]+
    |psi|^2 = 1.000
==== e(   6) =     7.71395 eV ==== 
     psi = 0.233*[#  15]+0.233*[#  16]+0.233*[#  17]+0.084*[#   2]+0.048*[#   9]+
          +0.048*[#  12]+0.047*[#  14]+0.015*[#  10]+0.015*[#  11]+0.015*[#  13]+
          +0.007*[#   6]+0.007*[#   7]+0.007*[#   8]+0.006*[#   1]+
    |psi|^2 = 0.998
==== e(   7) =     8.80480 eV ==== 
     psi = 0.250*[#  15]+0.250*[#  16]+0.250*[#  17]+0.100*[#   9]+0.100*[#  12]+
          +0.011*[#  10]+0.011*[#  11]+0.011*[#  13]+0.007*[#   2]+0.002*[#  14]+
          +0.002*[#   6]+0.002*[#   7]+0.002*[#   8]+
    |psi|^2 = 0.998
==== e(   8) =     9.12174 eV ==== 
     psi = 0.267*[#  15]+0.267*[#  16]+0.267*[#  17]+0.042*[#  10]+0.042*[#  11]+
          +0.042*[#  13]+0.019*[#   9]+0.019*[#  12]+0.010*[#   6]+0.010*[#   7]+
          +0.010*[#   8]+
    |psi|^2 = 0.998
==== e(   9) =    11.89234 eV ==== 
     psi = 0.317*[#  10]+0.317*[#  11]+0.317*[#  13]+0.011*[#  15]+0.011*[#  16]+
          +0.011*[#  17]+0.004*[#   9]+0.004*[#  12]+
    |psi|^2 = 0.994
==== e(  10) =    12.33777 eV ==== 
     psi = 0.252*[#  10]+0.252*[#  11]+0.252*[#  13]+0.099*[#   9]+0.099*[#  12]+
          +0.012*[#  15]+0.012*[#  16]+0.012*[#  17]+0.002*[#   2]+0.002*[#  14]+
    |psi|^2 = 0.998
==== e(  11) =    12.44610 eV ==== 
     psi = 0.288*[#  10]+0.288*[#  11]+0.288*[#  13]+0.029*[#   9]+0.029*[#  12]+
          +0.022*[#  15]+0.022*[#  16]+0.022*[#  17]+0.003*[#  14]+0.002*[#   6]+
          +0.002*[#   7]+0.002*[#   8]+0.001*[#   2]+
    |psi|^2 = 0.997
==== e(  12) =    12.83822 eV ==== 
     psi = 0.323*[#   9]+0.323*[#  12]+0.065*[#  10]+0.065*[#  11]+0.065*[#  13]+
          +0.039*[#  15]+0.039*[#  16]+0.039*[#  17]+0.018*[#  14]+0.016*[#   2]+
          +0.002*[#   6]+0.002*[#   7]+0.002*[#   8]+
    |psi|^2 = 0.998
==== e(  13) =    13.65534 eV ==== 
     psi = 0.361*[#   9]+0.361*[#  12]+0.076*[#  15]+0.076*[#  16]+0.076*[#  17]+
          +0.018*[#  14]+0.013*[#   2]+0.003*[#   6]+0.003*[#   7]+0.003*[#   8]+
          +0.002*[#  10]+0.002*[#  11]+0.002*[#  13]+
    |psi|^2 = 0.997
==== e(  14) =    17.03530 eV ==== 
     psi = 0.250*[#  14]+0.246*[#   2]+0.079*[#   6]+0.079*[#   7]+0.079*[#   8]+
          +0.071*[#  15]+0.071*[#  16]+0.071*[#  17]+0.017*[#   1]+0.014*[#   9]+
          +0.014*[#  12]+0.001*[#   3]+0.001*[#   4]+0.001*[#   5]+
    |psi|^2 = 0.994
==== e(  15) =    26.53032 eV ==== 
     psi = 0.113*[#   6]+0.113*[#   7]+0.113*[#   8]+0.046*[#   2]+0.005*[#   1]+
          +0.004*[#  10]+0.004*[#  11]+0.004*[#  13]+0.003*[#  15]+0.003*[#  16]+
          +0.003*[#  17]+0.002*[#   3]+0.002*[#   4]+0.002*[#   5]+
    |psi|^2 = 0.421

 k =   0.0144779659  0.0144779659  0.1303016927
==== e(   1) =   -73.29856 eV ==== 
     psi = 0.923*[#   1]+0.023*[#   6]+0.023*[#   7]+0.023*[#   8]+0.007*[#   2]+
    |psi|^2 = 1.000
==== e(   2) =   -39.16188 eV ==== 
     psi = 0.329*[#   3]+0.329*[#   4]+0.329*[#   5]+0.003*[#   2]+0.003*[#   6]+
          +0.003*[#   7]+0.003*[#   8]+
    |psi|^2 = 0.998
==== e(   3) =   -39.10742 eV ==== 
     psi = 0.330*[#   3]+0.330*[#   4]+0.330*[#   5]+0.001*[#   6]+0.001*[#   7]+
          +0.001*[#   8]+0.001*[#  15]+0.001*[#  16]+0.001*[#  17]+
    |psi|^2 = 0.998
==== e(   4) =   -39.10097 eV ==== 
     psi = 0.330*[#   3]+0.330*[#   4]+0.330*[#   5]+0.002*[#   6]+0.002*[#   7]+
          +0.002*[#   8]+0.001*[#  15]+0.001*[#  16]+0.001*[#  17]+
    |psi|^2 = 0.998
==== e(   5) =    -6.10068 eV ==== 
     psi = 0.721*[#  14]+0.062*[#   6]+0.062*[#   7]+0.062*[#   8]+0.061*[#   2]+
          +0.010*[#   9]+0.010*[#  12]+0.007*[#   1]+0.001*[#   3]+0.001*[#   4]+
          +0.001*[#   5]+
    |psi|^2 = 1.000
==== e(   6) =     6.78339 eV ==== 
     psi = 0.218*[#  15]+0.218*[#  16]+0.218*[#  17]+0.072*[#   9]+0.072*[#  12]+
          +0.045*[#   2]+0.035*[#   6]+0.035*[#   7]+0.035*[#   8]+0.032*[#  14]+
          +0.009*[#   1]+0.002*[#  10]+0.002*[#  11]+0.002*[#  13]+0.001*[#   3]+
          +0.001*[#   4]+0.001*[#   5]+
    |psi|^2 = 0.998
==== e(   7) =     8.94146 eV ==== 
     psi = 0.277*[#  15]+0.277*[#  16]+0.277*[#  17]+0.031*[#  10]+0.031*[#  11]+
          +0.031*[#  13]+0.015*[#   6]+0.015*[#   7]+0.015*[#   8]+0.010*[#   9]+
          +0.010*[#  12]+0.004*[#   2]+0.001*[#  14]+
    |psi|^2 = 0.998
==== e(   8) =     9.01568 eV ==== 
     psi = 0.282*[#  15]+0.282*[#  16]+0.282*[#  17]+0.025*[#  10]+0.025*[#  11]+
          +0.025*[#  13]+0.015*[#   6]+0.015*[#   7]+0.015*[#   8]+0.014*[#   9]+
          +0.014*[#  12]+
    |psi|^2 = 0.998
==== e(   9) =    11.25710 eV ==== 
     psi = 0.322*[#  10]+0.322*[#  11]+0.322*[#  13]+0.007*[#  15]+0.007*[#  16]+
          +0.007*[#  17]+
    |psi|^2 = 0.988
==== e(  10) =    12.57863 eV ==== 
     psi = 0.444*[#   9]+0.444*[#  12]+0.035*[#  10]+0.035*[#  11]+0.035*[#  13]+
          +0.001*[#  15]+0.001*[#  16]+0.001*[#  17]+
    |psi|^2 = 0.998
==== e(  11) =    12.95075 eV ==== 
     psi = 0.304*[#  10]+0.304*[#  11]+0.304*[#  13]+0.026*[#  15]+0.026*[#  16]+
          +0.026*[#  17]+0.002*[#   9]+0.002*[#  12]+0.002*[#   2]+0.002*[#  14]+
    |psi|^2 = 0.999
==== e(  12) =    12.99125 eV ==== 
     psi = 0.272*[#  10]+0.272*[#  11]+0.272*[#  13]+0.041*[#   9]+0.041*[#  12]+
          +0.034*[#  15]+0.034*[#  16]+0.034*[#  17]+
    |psi|^2 = 0.999
==== e(  13) =    13.49481 eV ==== 
     psi = 0.378*[#   9]+0.378*[#  12]+0.090*[#  14]+0.034*[#   2]+0.024*[#  15]+
          +0.024*[#  16]+0.024*[#  17]+0.012*[#   6]+0.012*[#   7]+0.012*[#   8]+
          +0.003*[#   1]+0.001*[#  10]+0.001*[#  11]+0.001*[#  13]+
    |psi|^2 = 0.996
==== e(  14) =    19.08734 eV ==== 
     psi = 0.274*[#   2]+0.137*[#  14]+0.094*[#  15]+0.094*[#  16]+0.094*[#  17]+
          +0.079*[#   6]+0.079*[#   7]+0.079*[#   8]+0.026*[#   9]+0.026*[#  12]+
          +0.006*[#   1]+
    |psi|^2 = 0.992
==== e(  15) =    25.89691 eV ==== 
     psi = 0.035*[#   6]+0.035*[#   7]+0.035*[#   8]+0.012*[#   2]+0.005*[#  10]+
          +0.005*[#  11]+0.005*[#  13]+0.002*[#  15]+0.002*[#  16]+0.002*[#  17]+
          +0.001*[#   1]+
    |psi|^2 = 0.138

 k =  -0.0144779659  0.0434338976  0.1592576244
==== e(   1) =   -73.30404 eV ==== 
     psi = 0.951*[#   1]+0.013*[#   6]+0.013*[#   7]+0.013*[#   8]+0.008*[#   2]+
    |psi|^2 = 1.000
==== e(   2) =   -39.20639 eV ==== 
     psi = 0.328*[#   3]+0.328*[#   4]+0.328*[#   5]+0.003*[#   6]+0.003*[#   7]+
          +0.003*[#   8]+0.002*[#   2]+0.001*[#  15]+0.001*[#  16]+0.001*[#  17]+
    |psi|^2 = 0.998
==== e(   3) =   -39.14928 eV ==== 
     psi = 0.330*[#   3]+0.330*[#   4]+0.330*[#   5]+0.002*[#   6]+0.002*[#   7]+
          +0.002*[#   8]+0.001*[#  15]+0.001*[#  16]+0.001*[#  17]+
    |psi|^2 = 0.998
==== e(   4) =   -39.11701 eV ==== 
     psi = 0.330*[#   3]+0.330*[#   4]+0.330*[#   5]+0.002*[#  15]+0.002*[#  16]+
          +0.002*[#  17]+
    |psi|^2 = 0.998
==== e(   5) =    -5.88265 eV ==== 
     psi = 0.791*[#  14]+0.045*[#   6]+0.045*[#   7]+0.045*[#   8]+0.035*[#   2]+
          +0.017*[#   9]+0.017*[#  12]+0.003*[#   1]+0.001*[#   3]+0.001*[#   4]+
          +0.001*[#   5]+
    |psi|^2 = 1.000
==== e(   6) =     6.61114 eV ==== 
     psi = 0.223*[#  15]+0.223*[#  16]+0.223*[#  17]+0.049*[#   6]+0.049*[#   7]+
          +0.049*[#   8]+0.044*[#   2]+0.043*[#   9]+0.043*[#  12]+0.017*[#  14]+
          +0.008*[#  10]+0.008*[#  11]+0.008*[#  13]+0.006*[#   1]+0.002*[#   3]+
          +0.002*[#   4]+0.002*[#   5]+
    |psi|^2 = 0.999
==== e(   7) =     8.40194 eV ==== 
     psi = 0.261*[#  15]+0.261*[#  16]+0.261*[#  17]+0.043*[#   9]+0.043*[#  12]+
          +0.024*[#  10]+0.024*[#  11]+0.024*[#  13]+0.014*[#   2]+0.013*[#   6]+
          +0.013*[#   7]+0.013*[#   8]+0.001*[#  14]+
    |psi|^2 = 0.998
==== e(   8) =     8.64264 eV ==== 
     psi = 0.268*[#  15]+0.268*[#  16]+0.268*[#  17]+0.030*[#   9]+0.030*[#  12]+
          +0.026*[#  10]+0.026*[#  11]+0.026*[#  13]+0.018*[#   6]+0.018*[#   7]+
          +0.018*[#   8]+
    |psi|^2 = 0.998
==== e(   9) =    11.42432 eV ==== 
     psi = 0.303*[#  10]+0.303*[#  11]+0.303*[#  13]+0.025*[#  15]+0.025*[#  16]+
          +0.025*[#  17]+0.002*[#   9]+0.002*[#  12]+
    |psi|^2 = 0.990
==== e(  10) =    12.81984 eV ==== 
     psi = 0.299*[#   9]+0.299*[#  12]+0.129*[#  10]+0.129*[#  11]+0.129*[#  13]+
          +0.005*[#  14]+0.001*[#   2]+0.001*[#  15]+0.001*[#  16]+0.001*[#  17]+
          +0.001*[#   6]+0.001*[#   7]+0.001*[#   8]+
    |psi|^2 = 0.999
==== e(  11) =    13.04493 eV ==== 
     psi = 0.314*[#  10]+0.314*[#  11]+0.314*[#  13]+0.018*[#  15]+0.018*[#  16]+
          +0.018*[#  17]+0.001*[#   2]+
    |psi|^2 = 1.000
==== e(  12) =    13.14994 eV ==== 
     psi = 0.188*[#  10]+0.188*[#  11]+0.188*[#  13]+0.163*[#   9]+0.163*[#  12]+
          +0.031*[#  15]+0.031*[#  16]+0.031*[#  17]+0.007*[#  14]+0.005*[#   2]+
          +0.001*[#   6]+0.001*[#   7]+0.001*[#   8]+
    |psi|^2 = 0.999
==== e(  13) =    13.72036 eV ==== 
     psi = 0.389*[#   9]+0.389*[#  12]+0.061*[#  14]+0.041*[#  15]+0.041*[#  16]+
          +0.041*[#  17]+0.009*[#   6]+0.009*[#   7]+0.009*[#   8]+0.004*[#   2]+
          +0.001*[#   1]+
    |psi|^2 = 0.997
==== e(  14) =    20.10564 eV ==== 
     psi = 0.382*[#   2]+0.093*[#  14]+0.084*[#   6]+0.084*[#   7]+0.084*[#   8]+
          +0.076*[#  15]+0.076*[#  16]+0.076*[#  17]+0.013*[#   9]+0.013*[#  12]+
    |psi|^2 = 0.985
==== e(  15) =    24.92107 eV ==== 
     psi = 0.255*[#   2]+0.108*[#   6]+0.108*[#   7]+0.108*[#   8]+0.018*[#   1]+
          +0.012*[#  15]+0.012*[#  16]+0.012*[#  17]+0.007*[#  14]+0.003*[#  10]+
          +0.003*[#  11]+0.003*[#  13]+
    |psi|^2 = 0.651

 k =   0.1882135561 -0.1592576244 -0.0434338976
==== e(   1) =   -73.30604 eV ==== 
     psi = 0.979*[#   1]+0.008*[#   2]+0.003*[#   6]+0.003*[#   7]+0.003*[#   8]+
          +0.001*[#  15]+0.001*[#  16]+0.001*[#  17]+
    |psi|^2 = 1.000
==== e(   2) =   -39.20165 eV ==== 
     psi = 0.329*[#   3]+0.329*[#   4]+0.329*[#   5]+0.002*[#  15]+0.002*[#  16]+
          +0.002*[#  17]+0.001*[#   6]+0.001*[#   7]+0.001*[#   8]+
    |psi|^2 = 0.998
==== e(   3) =   -39.18387 eV ==== 
     psi = 0.330*[#   3]+0.330*[#   4]+0.330*[#   5]+0.002*[#  15]+0.002*[#  16]+
          +0.002*[#  17]+0.001*[#   6]+0.001*[#   7]+0.001*[#   8]+
    |psi|^2 = 0.998
==== e(   4) =   -39.12980 eV ==== 
     psi = 0.330*[#   3]+0.330*[#   4]+0.330*[#   5]+0.001*[#   6]+0.001*[#   7]+
          +0.001*[#   8]+0.001*[#  15]+0.001*[#  16]+0.001*[#  17]+
    |psi|^2 = 0.998
==== e(   5) =    -5.70237 eV ==== 
     psi = 0.851*[#  14]+0.032*[#   6]+0.032*[#   7]+0.032*[#   8]+0.020*[#   9]+
          +0.020*[#  12]+0.008*[#   2]+
    |psi|^2 = 0.999
==== e(   6) =     6.64530 eV ==== 
     psi = 0.234*[#  15]+0.234*[#  16]+0.234*[#  17]+0.069*[#   2]+0.043*[#   6]+
          +0.043*[#   7]+0.043*[#   8]+0.027*[#  10]+0.027*[#  11]+0.027*[#  13]+
          +0.004*[#   9]+0.004*[#  12]+0.003*[#  14]+0.003*[#   1]+0.002*[#   3]+
          +0.002*[#   4]+0.002*[#   5]+
    |psi|^2 = 0.999
==== e(   7) =     7.61592 eV ==== 
     psi = 0.244*[#  15]+0.244*[#  16]+0.244*[#  17]+0.051*[#   9]+0.051*[#  12]+
          +0.025*[#   6]+0.025*[#   7]+0.025*[#   8]+0.022*[#  10]+0.022*[#  11]+
          +0.022*[#  13]+0.018*[#   2]+0.002*[#   3]+0.002*[#   4]+0.002*[#   5]+
    |psi|^2 = 0.998
==== e(   8) =     8.21133 eV ==== 
     psi = 0.249*[#  15]+0.249*[#  16]+0.249*[#  17]+0.092*[#   9]+0.092*[#  12]+
          +0.014*[#   6]+0.014*[#   7]+0.014*[#   8]+0.007*[#  10]+0.007*[#  11]+
          +0.007*[#  13]+0.001*[#   2]+
    |psi|^2 = 0.999
==== e(   9) =    11.94318 eV ==== 
     psi = 0.289*[#  10]+0.289*[#  11]+0.289*[#  13]+0.025*[#  15]+0.025*[#  16]+
          +0.025*[#  17]+0.020*[#   9]+0.020*[#  12]+0.005*[#  14]+0.003*[#   2]+
          +0.001*[#   6]+0.001*[#   7]+0.001*[#   8]+
    |psi|^2 = 0.994
==== e(  10) =    12.88179 eV ==== 
     psi = 0.306*[#  10]+0.306*[#  11]+0.306*[#  13]+0.031*[#   9]+0.031*[#  12]+
          +0.006*[#  15]+0.006*[#  16]+0.006*[#  17]+0.002*[#  14]+
    |psi|^2 = 0.999
==== e(  11) =    13.04653 eV ==== 
     psi = 0.310*[#  10]+0.310*[#  11]+0.310*[#  13]+0.016*[#  15]+0.016*[#  16]+
          +0.016*[#  17]+0.008*[#   9]+0.008*[#  12]+0.003*[#   2]+
    |psi|^2 = 1.000
==== e(  12) =    13.53636 eV ==== 
     psi = 0.383*[#   9]+0.383*[#  12]+0.039*[#  14]+0.037*[#  15]+0.037*[#  16]+
          +0.037*[#  17]+0.022*[#  10]+0.022*[#  11]+0.022*[#  13]+0.005*[#   6]+
          +0.005*[#   7]+0.005*[#   8]+
    |psi|^2 = 0.998
==== e(  13) =    13.92988 eV ==== 
     psi = 0.385*[#   9]+0.385*[#  12]+0.063*[#  15]+0.063*[#  16]+0.063*[#  17]+
          +0.008*[#  14]+0.007*[#   2]+0.005*[#  10]+0.005*[#  11]+0.005*[#  13]+
          +0.003*[#   6]+0.003*[#   7]+0.003*[#   8]+
    |psi|^2 = 0.998
==== e(  14) =    21.51221 eV ==== 
     psi = 0.462*[#   2]+0.101*[#   6]+0.101*[#   7]+0.101*[#   8]+0.051*[#  14]+
          +0.047*[#  15]+0.047*[#  16]+0.047*[#  17]+0.002*[#   9]+0.002*[#  12]+
          +0.002*[#  10]+0.002*[#  11]+0.002*[#  13]+0.001*[#   1]+
    |psi|^2 = 0.966
==== e(  15) =    23.33162 eV ==== 
     psi = 0.337*[#   2]+0.134*[#   6]+0.134*[#   7]+0.134*[#   8]+0.029*[#  15]+
          +0.029*[#  16]+0.029*[#  17]+0.017*[#  14]+0.011*[#   1]+0.004*[#  10]+
          +0.004*[#  11]+0.004*[#  13]+0.002*[#   9]+0.002*[#  12]+
    |psi|^2 = 0.870

 k =   0.1592576244 -0.1303016927 -0.0144779659
==== e(   1) =   -73.30874 eV ==== 
     psi = 0.978*[#   1]+0.008*[#   2]+0.003*[#   6]+0.003*[#   7]+0.003*[#   8]+
          +0.002*[#  15]+0.002*[#  16]+0.002*[#  17]+
    |psi|^2 = 1.000
==== e(   2) =   -39.22125 eV ==== 
     psi = 0.331*[#   3]+0.331*[#   4]+0.331*[#   5]+0.001*[#  14]+
    |psi|^2 = 0.998
==== e(   3) =   -39.18056 eV ==== 
     psi = 0.330*[#   3]+0.330*[#   4]+0.330*[#   5]+0.002*[#  15]+0.002*[#  16]+
          +0.002*[#  17]+
    |psi|^2 = 0.998
==== e(   4) =   -39.14103 eV ==== 
     psi = 0.330*[#   3]+0.330*[#   4]+0.330*[#   5]+0.002*[#   6]+0.002*[#   7]+
          +0.002*[#   8]+
    |psi|^2 = 0.998
==== e(   5) =    -5.67136 eV ==== 
     psi = 0.843*[#  14]+0.040*[#   6]+0.040*[#   7]+0.040*[#   8]+0.016*[#   9]+
          +0.016*[#  12]+
    |psi|^2 = 0.999
==== e(   6) =     6.50068 eV ==== 
     psi = 0.229*[#  15]+0.229*[#  16]+0.229*[#  17]+0.104*[#   2]+0.029*[#  10]+
          +0.029*[#  11]+0.029*[#  13]+0.023*[#   9]+0.023*[#  12]+0.023*[#   6]+
          +0.023*[#   7]+0.023*[#   8]+0.003*[#   1]+0.002*[#  14]+
    |psi|^2 = 0.999
==== e(   7) =     7.49333 eV ==== 
     psi = 0.247*[#  15]+0.247*[#  16]+0.247*[#  17]+0.042*[#   6]+0.042*[#   7]+
          +0.042*[#   8]+0.035*[#  10]+0.035*[#  11]+0.035*[#  13]+0.011*[#   9]+
          +0.011*[#  12]+0.002*[#   3]+0.002*[#   4]+0.002*[#   5]+
    |psi|^2 = 0.999
==== e(   8) =     7.94701 eV ==== 
     psi = 0.236*[#  15]+0.236*[#  16]+0.236*[#  17]+0.131*[#   9]+0.131*[#  12]+
          +0.008*[#   6]+0.008*[#   7]+0.008*[#   8]+0.002*[#   2]+
    |psi|^2 = 0.999
==== e(   9) =    12.48276 eV ==== 
     psi = 0.270*[#  10]+0.270*[#  11]+0.270*[#  13]+0.063*[#   9]+0.063*[#  12]+
          +0.016*[#  15]+0.016*[#  16]+0.016*[#  17]+0.008*[#  14]+0.002*[#   6]+
          +0.002*[#   7]+0.002*[#   8]+
    |psi|^2 = 0.997
==== e(  10) =    12.67666 eV ==== 
     psi = 0.320*[#  10]+0.320*[#  11]+0.320*[#  13]+0.012*[#  15]+0.012*[#  16]+
          +0.012*[#  17]+0.001*[#   9]+0.001*[#  12]+
    |psi|^2 = 0.998
==== e(  11) =    12.99011 eV ==== 
     psi = 0.297*[#  10]+0.297*[#  11]+0.297*[#  13]+0.028*[#  15]+0.028*[#  16]+
          +0.028*[#  17]+0.010*[#   9]+0.010*[#  12]+0.002*[#   2]+
    |psi|^2 = 0.999
==== e(  12) =    13.37177 eV ==== 
     psi = 0.372*[#   9]+0.372*[#  12]+0.036*[#  14]+0.035*[#  10]+0.035*[#  11]+
          +0.035*[#  13]+0.029*[#  15]+0.029*[#  16]+0.029*[#  17]+0.021*[#   2]+
          +0.002*[#   6]+0.002*[#   7]+0.002*[#   8]+
    |psi|^2 = 0.999
==== e(  13) =    14.47053 eV ==== 
     psi = 0.366*[#   9]+0.366*[#  12]+0.084*[#  15]+0.084*[#  16]+0.084*[#  17]+
          +0.004*[#   2]+0.002*[#   6]+0.002*[#   7]+0.002*[#   8]+
    |psi|^2 = 0.999
==== e(  14) =    21.95169 eV ==== 
     psi = 0.259*[#   2]+0.148*[#   6]+0.148*[#   7]+0.148*[#   8]+0.057*[#  14]+
          +0.053*[#  15]+0.053*[#  16]+0.053*[#  17]+0.005*[#  10]+0.005*[#  11]+
          +0.005*[#  13]+0.005*[#   9]+0.005*[#  12]+
    |psi|^2 = 0.945
==== e(  15) =    23.24872 eV ==== 
     psi = 0.438*[#   2]+0.126*[#   6]+0.126*[#   7]+0.126*[#   8]+0.024*[#  15]+
          +0.024*[#  16]+0.024*[#  17]+0.021*[#  14]+0.011*[#   1]+0.003*[#  10]+
          +0.003*[#  11]+0.003*[#  13]+
    |psi|^2 = 0.927

 k =   0.1303016927 -0.1013457610  0.0144779659
==== e(   1) =   -73.30825 eV ==== 
     psi = 0.951*[#   1]+0.012*[#   6]+0.012*[#   7]+0.012*[#   8]+0.007*[#   2]+
          +0.001*[#  15]+0.001*[#  16]+0.001*[#  17]+
    |psi|^2 = 1.000
==== e(   2) =   -39.20591 eV ==== 
     psi = 0.329*[#   3]+0.329*[#   4]+0.329*[#   5]+0.003*[#   6]+0.003*[#   7]+
          +0.003*[#   8]+0.001*[#   2]+
    |psi|^2 = 0.998
==== e(   3) =   -39.15561 eV ==== 
     psi = 0.329*[#   3]+0.329*[#   4]+0.329*[#   5]+0.002*[#  15]+0.002*[#  16]+
          +0.002*[#  17]+0.001*[#   6]+0.001*[#   7]+0.001*[#   8]+
    |psi|^2 = 0.998
==== e(   4) =   -39.14295 eV ==== 
     psi = 0.329*[#   3]+0.329*[#   4]+0.329*[#   5]+0.004*[#   6]+0.004*[#   7]+
          +0.004*[#   8]+
    |psi|^2 = 0.999
==== e(   5) =    -5.80783 eV ==== 
     psi = 0.774*[#  14]+0.062*[#   6]+0.062*[#   7]+0.062*[#   8]+0.016*[#   2]+
          +0.008*[#   9]+0.008*[#  12]+0.003*[#   1]+0.002*[#   3]+0.002*[#   4]+
          +0.002*[#   5]+
    |psi|^2 = 1.000
==== e(   6) =     6.32270 eV ==== 
     psi = 0.219*[#  15]+0.219*[#  16]+0.219*[#  17]+0.113*[#   2]+0.031*[#   9]+
          +0.031*[#  12]+0.025*[#  10]+0.025*[#  11]+0.025*[#  13]+0.022*[#   6]+
          +0.022*[#   7]+0.022*[#   8]+0.019*[#  14]+0.006*[#   1]+
    |psi|^2 = 0.999
==== e(   7) =     7.90601 eV ==== 
     psi = 0.232*[#  15]+0.232*[#  16]+0.232*[#  17]+0.121*[#   9]+0.121*[#  12]+
          +0.011*[#  10]+0.011*[#  11]+0.011*[#  13]+0.008*[#   6]+0.008*[#   7]+
          +0.008*[#   8]+0.002*[#   2]+
    |psi|^2 = 0.998
==== e(   8) =     7.99179 eV ==== 
     psi = 0.243*[#  15]+0.243*[#  16]+0.243*[#  17]+0.040*[#  10]+0.040*[#  11]+
          +0.040*[#  13]+0.037*[#   9]+0.037*[#  12]+0.024*[#   6]+0.024*[#   7]+
          +0.024*[#   8]+
    |psi|^2 = 0.999
==== e(   9) =    12.39904 eV ==== 
     psi = 0.311*[#  10]+0.311*[#  11]+0.311*[#  13]+0.014*[#  15]+0.014*[#  16]+
          +0.014*[#  17]+0.009*[#   9]+0.009*[#  12]+0.001*[#  14]+
    |psi|^2 = 0.997
==== e(  10) =    12.73632 eV ==== 
     psi = 0.232*[#  10]+0.232*[#  11]+0.232*[#  13]+0.136*[#   9]+0.136*[#  12]+
          +0.010*[#  14]+0.005*[#  15]+0.005*[#  16]+0.005*[#  17]+0.001*[#   2]+
          +0.001*[#   6]+0.001*[#   7]+0.001*[#   8]+
    |psi|^2 = 0.999
==== e(  11) =    12.89512 eV ==== 
     psi = 0.290*[#  10]+0.290*[#  11]+0.290*[#  13]+0.039*[#  15]+0.039*[#  16]+
          +0.039*[#  17]+0.005*[#   9]+0.005*[#  12]+0.002*[#   2]+
    |psi|^2 = 0.999
==== e(  12) =    13.30832 eV ==== 
     psi = 0.294*[#   9]+0.294*[#  12]+0.082*[#  10]+0.082*[#  11]+0.082*[#  13]+
          +0.035*[#  15]+0.035*[#  16]+0.035*[#  17]+0.028*[#  14]+0.026*[#   2]+
          +0.002*[#   6]+0.002*[#   7]+0.002*[#   8]+
    |psi|^2 = 0.999
==== e(  13) =    14.72115 eV ==== 
     psi = 0.349*[#   9]+0.349*[#  12]+0.097*[#  15]+0.097*[#  16]+0.097*[#  17]+
          +0.004*[#  14]+0.001*[#   6]+0.001*[#   7]+0.001*[#   8]+
    |psi|^2 = 0.998
==== e(  14) =    20.27032 eV ==== 
     psi = 0.176*[#   2]+0.140*[#   6]+0.140*[#   7]+0.140*[#   8]+0.131*[#  14]+
          +0.070*[#  15]+0.070*[#  16]+0.070*[#  17]+0.009*[#   9]+0.009*[#  12]+
          +0.004*[#   1]+0.002*[#  10]+0.002*[#  11]+0.002*[#  13]+0.001*[#   3]+
          +0.001*[#   4]+0.001*[#   5]+
    |psi|^2 = 0.973
==== e(  15) =    24.23613 eV ==== 
     psi = 0.185*[#   2]+0.184*[#   6]+0.184*[#   7]+0.184*[#   8]+0.021*[#  15]+
          +0.021*[#  16]+0.021*[#  17]+0.007*[#   1]+0.005*[#  10]+0.005*[#  11]+
          +0.005*[#  13]+0.003*[#  14]+0.002*[#   3]+0.002*[#   4]+0.002*[#   5]+
    |psi|^2 = 0.831

 k =   0.1013457610 -0.0723898293  0.0434338976
==== e(   1) =   -73.30610 eV ==== 
     psi = 0.925*[#   1]+0.022*[#   6]+0.022*[#   7]+0.022*[#   8]+0.006*[#   2]+
          +0.001*[#  15]+0.001*[#  16]+0.001*[#  17]+
    |psi|^2 = 1.000
==== e(   2) =   -39.18557 eV ==== 
     psi = 0.328*[#   3]+0.328*[#   4]+0.328*[#   5]+0.004*[#   6]+0.004*[#   7]+
          +0.004*[#   8]+0.002*[#   2]+
    |psi|^2 = 0.998
==== e(   3) =   -39.13416 eV ==== 
     psi = 0.329*[#   3]+0.329*[#   4]+0.329*[#   5]+0.004*[#   6]+0.004*[#   7]+
          +0.004*[#   8]+
    |psi|^2 = 0.998
==== e(   4) =   -39.11562 eV ==== 
     psi = 0.329*[#   3]+0.329*[#   4]+0.329*[#   5]+0.003*[#   6]+0.003*[#   7]+
          +0.003*[#   8]+
    |psi|^2 = 0.999
==== e(   5) =    -6.03219 eV ==== 
     psi = 0.705*[#  14]+0.078*[#   6]+0.078*[#   7]+0.078*[#   8]+0.041*[#   2]+
          +0.008*[#   1]+0.002*[#   3]+0.002*[#   4]+0.002*[#   5]+0.002*[#   9]+
          +0.002*[#  12]+
    |psi|^2 = 1.000
==== e(   6) =     6.49267 eV ==== 
     psi = 0.220*[#  15]+0.220*[#  16]+0.220*[#  17]+0.128*[#   2]+0.037*[#  14]+
          +0.032*[#  10]+0.032*[#  11]+0.032*[#  13]+0.016*[#   9]+0.016*[#  12]+
          +0.013*[#   6]+0.013*[#   7]+0.013*[#   8]+0.007*[#   1]+
    |psi|^2 = 0.999
==== e(   7) =     8.11403 eV ==== 
     psi = 0.230*[#  15]+0.230*[#  16]+0.230*[#  17]+0.133*[#   9]+0.133*[#  12]+
          +0.011*[#  10]+0.011*[#  11]+0.011*[#  13]+0.003*[#   2]+0.002*[#   6]+
          +0.002*[#   7]+0.002*[#   8]+
    |psi|^2 = 0.998
==== e(   8) =     8.38047 eV ==== 
     psi = 0.239*[#  15]+0.239*[#  16]+0.239*[#  17]+0.087*[#   9]+0.087*[#  12]+
          +0.027*[#  10]+0.027*[#  11]+0.027*[#  13]+0.008*[#   6]+0.008*[#   7]+
          +0.008*[#   8]+
    |psi|^2 = 0.998
==== e(   9) =    12.20979 eV ==== 
     psi = 0.305*[#  10]+0.305*[#  11]+0.305*[#  13]+0.018*[#   9]+0.018*[#  12]+
          +0.011*[#  15]+0.011*[#  16]+0.011*[#  17]+0.004*[#  14]+0.002*[#   2]+
          +0.002*[#   6]+0.002*[#   7]+0.002*[#   8]+
    |psi|^2 = 0.996
==== e(  10) =    12.58961 eV ==== 
     psi = 0.285*[#  10]+0.285*[#  11]+0.285*[#  13]+0.057*[#   9]+0.057*[#  12]+
          +0.007*[#  15]+0.007*[#  16]+0.007*[#  17]+0.003*[#  14]+0.002*[#   2]+
          +0.002*[#   6]+0.002*[#   7]+0.002*[#   8]+
    |psi|^2 = 0.999
==== e(  11) =    12.80052 eV ==== 
     psi = 0.300*[#  10]+0.300*[#  11]+0.300*[#  13]+0.023*[#  15]+0.023*[#  16]+
          +0.023*[#  17]+0.009*[#   9]+0.009*[#  12]+0.004*[#   2]+0.003*[#  14]+
          +0.001*[#   6]+0.001*[#   7]+0.001*[#   8]+
    |psi|^2 = 0.999
==== e(  12) =    13.67910 eV ==== 
     psi = 0.329*[#   9]+0.329*[#  12]+0.074*[#  15]+0.074*[#  16]+0.074*[#  17]+
          +0.030*[#  10]+0.030*[#  11]+0.030*[#  13]+0.012*[#  14]+0.007*[#   2]+
          +0.003*[#   6]+0.003*[#   7]+0.003*[#   8]+
    |psi|^2 = 0.998
==== e(  13) =    14.43822 eV ==== 
     psi = 0.340*[#   9]+0.340*[#  12]+0.096*[#  15]+0.096*[#  16]+0.096*[#  17]+
          +0.010*[#  14]+0.003*[#   6]+0.003*[#   7]+0.003*[#   8]+0.003*[#  10]+
          +0.003*[#  11]+0.003*[#  13]+0.002*[#   2]+
    |psi|^2 = 0.997
==== e(  14) =    18.66301 eV ==== 
     psi = 0.204*[#  14]+0.145*[#   2]+0.128*[#   6]+0.128*[#   7]+0.128*[#   8]+
          +0.070*[#  15]+0.070*[#  16]+0.070*[#  17]+0.014*[#   1]+0.009*[#   9]+
          +0.009*[#  12]+0.002*[#   3]+0.002*[#   4]+0.002*[#   5]+
    |psi|^2 = 0.981
==== e(  15) =    24.62198 eV ==== 
     psi = 0.361*[#   2]+0.098*[#   6]+0.098*[#   7]+0.098*[#   8]+0.020*[#   1]+
          +0.015*[#  15]+0.015*[#  16]+0.015*[#  17]+0.004*[#  10]+0.004*[#  11]+
          +0.004*[#  13]+0.004*[#  14]+0.001*[#   3]+0.001*[#   4]+0.001*[#   5]+
    |psi|^2 = 0.738

 k =   0.0144779659  0.0144779659  0.1882135561
==== e(   1) =   -73.30053 eV ==== 
     psi = 0.971*[#   1]+0.009*[#   2]+0.007*[#   6]+0.007*[#   7]+0.007*[#   8]+
    |psi|^2 = 1.000
==== e(   2) =   -39.21024 eV ==== 
     psi = 0.328*[#   3]+0.328*[#   4]+0.328*[#   5]+0.002*[#   6]+0.002*[#   7]+
          +0.002*[#   8]+0.002*[#  15]+0.002*[#  16]+0.002*[#  17]+
    |psi|^2 = 0.998
==== e(   3) =   -39.12455 eV ==== 
     psi = 0.331*[#   3]+0.331*[#   4]+0.331*[#   5]+0.002*[#  15]+0.002*[#  16]+
          +0.002*[#  17]+
    |psi|^2 = 0.998
==== e(   4) =   -39.12342 eV ==== 
     psi = 0.330*[#   3]+0.330*[#   4]+0.330*[#   5]+0.002*[#  15]+0.002*[#  16]+
          +0.002*[#  17]+
    |psi|^2 = 0.998
==== e(   5) =    -5.82794 eV ==== 
     psi = 0.847*[#  14]+0.035*[#   2]+0.028*[#   9]+0.028*[#  12]+0.020*[#   6]+
          +0.020*[#   7]+0.020*[#   8]+
    |psi|^2 = 0.999
==== e(   6) =     6.73665 eV ==== 
     psi = 0.236*[#  15]+0.236*[#  16]+0.236*[#  17]+0.066*[#   6]+0.066*[#   7]+
          +0.066*[#   8]+0.025*[#   9]+0.025*[#  12]+0.015*[#   2]+0.007*[#  14]+
          +0.004*[#   3]+0.004*[#   4]+0.004*[#   5]+0.004*[#   1]+0.001*[#  10]+
          +0.001*[#  11]+0.001*[#  13]+
    |psi|^2 = 0.999
==== e(   7) =     8.77868 eV ==== 
     psi = 0.288*[#  15]+0.288*[#  16]+0.288*[#  17]+0.020*[#   6]+0.020*[#   7]+
          +0.020*[#   8]+0.017*[#  10]+0.017*[#  11]+0.017*[#  13]+0.006*[#   2]+
          +0.005*[#   9]+0.005*[#  12]+0.001*[#   3]+0.001*[#   4]+0.001*[#   5]+
    |psi|^2 = 0.998
==== e(   8) =     8.88368 eV ==== 
     psi = 0.297*[#  15]+0.297*[#  16]+0.297*[#  17]+0.020*[#   6]+0.020*[#   7]+
          +0.020*[#   8]+0.012*[#   9]+0.012*[#  12]+0.007*[#  10]+0.007*[#  11]+
          +0.007*[#  13]+0.001*[#   3]+0.001*[#   4]+0.001*[#   5]+
    |psi|^2 = 0.999
==== e(   9) =    10.94161 eV ==== 
     psi = 0.317*[#  10]+0.317*[#  11]+0.317*[#  13]+0.011*[#  15]+0.011*[#  16]+
          +0.011*[#  17]+
    |psi|^2 = 0.985
==== e(  10) =    12.74294 eV ==== 
     psi = 0.475*[#   9]+0.475*[#  12]+0.011*[#  10]+0.011*[#  11]+0.011*[#  13]+
          +0.005*[#  15]+0.005*[#  16]+0.005*[#  17]+
    |psi|^2 = 0.999
==== e(  11) =    13.07925 eV ==== 
     psi = 0.324*[#  10]+0.324*[#  11]+0.324*[#  13]+0.008*[#  15]+0.008*[#  16]+
          +0.008*[#  17]+
    |psi|^2 = 1.000
==== e(  12) =    13.08253 eV ==== 
     psi = 0.315*[#  10]+0.315*[#  11]+0.315*[#  13]+0.013*[#   9]+0.013*[#  12]+
          +0.009*[#  15]+0.009*[#  16]+0.009*[#  17]+
    |psi|^2 = 1.000
==== e(  13) =    13.30973 eV ==== 
     psi = 0.432*[#   9]+0.432*[#  12]+0.079*[#  14]+0.010*[#  15]+0.010*[#  16]+
          +0.010*[#  17]+0.005*[#   6]+0.005*[#   7]+0.005*[#   8]+0.002*[#   2]+
    |psi|^2 = 0.997
==== e(  14) =    20.35914 eV ==== 
     psi = 0.667*[#   2]+0.053*[#  14]+0.042*[#   6]+0.042*[#   7]+0.042*[#   8]+
          +0.042*[#  15]+0.042*[#  16]+0.042*[#  17]+0.006*[#   9]+0.006*[#  12]+
          +0.001*[#   1]+
    |psi|^2 = 0.984
==== e(  15) =    24.21516 eV ==== 
     psi = 0.243*[#   2]+0.181*[#   6]+0.181*[#   7]+0.181*[#   8]+0.044*[#  15]+
          +0.044*[#  16]+0.044*[#  17]+0.021*[#   1]+0.006*[#  14]+0.001*[#   9]+
          +0.001*[#  12]+
    |psi|^2 = 0.948

 k =   0.2171694878 -0.1882135561 -0.0144779659
==== e(   1) =   -73.29991 eV ==== 
     psi = 0.987*[#   1]+0.009*[#   2]+
    |psi|^2 = 1.000
==== e(   2) =   -39.20263 eV ==== 
     psi = 0.328*[#   3]+0.328*[#   4]+0.328*[#   5]+0.003*[#  15]+0.003*[#  16]+
          +0.003*[#  17]+
    |psi|^2 = 0.998
==== e(   3) =   -39.14123 eV ==== 
     psi = 0.330*[#   3]+0.330*[#   4]+0.330*[#   5]+0.002*[#  15]+0.002*[#  16]+
          +0.002*[#  17]+
    |psi|^2 = 0.998
==== e(   4) =   -39.11786 eV ==== 
     psi = 0.330*[#   3]+0.330*[#   4]+0.330*[#   5]+0.001*[#  15]+0.001*[#  16]+
          +0.001*[#  17]+
    |psi|^2 = 0.998
==== e(   5) =    -5.74483 eV ==== 
     psi = 0.885*[#  14]+0.033*[#   9]+0.033*[#  12]+0.022*[#   2]+0.009*[#   6]+
          +0.009*[#   7]+0.009*[#   8]+
    |psi|^2 = 0.999
==== e(   6) =     6.92987 eV ==== 
     psi = 0.248*[#  15]+0.248*[#  16]+0.248*[#  17]+0.071*[#   6]+0.071*[#   7]+
          +0.071*[#   8]+0.006*[#  10]+0.006*[#  11]+0.006*[#  13]+0.004*[#   3]+
          +0.004*[#   4]+0.004*[#   5]+0.003*[#   2]+0.003*[#   9]+0.003*[#  12]+
    |psi|^2 = 1.000
==== e(   7) =     8.28647 eV ==== 
     psi = 0.268*[#  15]+0.268*[#  16]+0.268*[#  17]+0.024*[#   2]+0.022*[#  10]+
          +0.022*[#  11]+0.022*[#  13]+0.020*[#   6]+0.020*[#   7]+0.020*[#   8]+
          +0.019*[#   9]+0.019*[#  12]+0.001*[#   3]+0.001*[#   4]+0.001*[#   5]+
          +0.001*[#  14]+
    |psi|^2 = 0.998
==== e(   8) =     8.58128 eV ==== 
     psi = 0.277*[#  15]+0.277*[#  16]+0.277*[#  17]+0.034*[#   9]+0.034*[#  12]+
          +0.020*[#   6]+0.020*[#   7]+0.020*[#   8]+0.010*[#  10]+0.010*[#  11]+
          +0.010*[#  13]+0.004*[#   2]+0.001*[#   3]+0.001*[#   4]+0.001*[#   5]+
    |psi|^2 = 0.998
==== e(   9) =    11.26450 eV ==== 
     psi = 0.295*[#  10]+0.295*[#  11]+0.295*[#  13]+0.033*[#  15]+0.033*[#  16]+
          +0.033*[#  17]+0.002*[#   9]+0.002*[#  12]+
    |psi|^2 = 0.988
==== e(  10) =    12.96817 eV ==== 
[...]
    |psi|^2 = 0.998
==== e(   8) =     8.09462 eV ==== 
     psi = 0.232*[#  15]+0.232*[#  16]+0.232*[#  17]+0.122*[#   9]+0.122*[#  12]+
          +0.015*[#  10]+0.015*[#  11]+0.015*[#  13]+0.005*[#   6]+0.005*[#   7]+
          +0.005*[#   8]+
    |psi|^2 = 0.998
==== e(   9) =    12.33382 eV ==== 
     psi = 0.303*[#  10]+0.303*[#  11]+0.303*[#  13]+0.020*[#   9]+0.020*[#  12]+
          +0.012*[#  15]+0.012*[#  16]+0.012*[#  17]+0.005*[#  14]+0.002*[#   6]+
          +0.002*[#   7]+0.002*[#   8]+0.002*[#   2]+
    |psi|^2 = 0.997
==== e(  10) =    12.79561 eV ==== 
     psi = 0.305*[#  10]+0.305*[#  11]+0.305*[#  13]+0.038*[#   9]+0.038*[#  12]+
          +0.002*[#  15]+0.002*[#  16]+0.002*[#  17]+
    |psi|^2 = 1.000
==== e(  11) =    12.97817 eV ==== 
     psi = 0.299*[#  10]+0.299*[#  11]+0.299*[#  13]+0.031*[#  15]+0.031*[#  16]+
          +0.031*[#  17]+0.007*[#   2]+
    |psi|^2 = 0.999
==== e(  12) =    14.25272 eV ==== 
     psi = 0.340*[#   9]+0.340*[#  12]+0.091*[#  15]+0.091*[#  16]+0.091*[#  17]+
          +0.012*[#  10]+0.012*[#  11]+0.012*[#  13]+0.003*[#   6]+0.003*[#   7]+
          +0.003*[#   8]+
    |psi|^2 = 0.998
==== e(  13) =    14.48187 eV ==== 
     psi = 0.339*[#   9]+0.339*[#  12]+0.085*[#  15]+0.085*[#  16]+0.085*[#  17]+
          +0.026*[#  14]+0.006*[#   6]+0.006*[#   7]+0.006*[#   8]+0.006*[#  10]+
          +0.006*[#  11]+0.006*[#  13]+
    |psi|^2 = 0.997
==== e(  14) =    19.72137 eV ==== 
     psi = 0.174*[#   6]+0.174*[#   7]+0.174*[#   8]+0.164*[#  14]+0.088*[#   2]+
          +0.050*[#  15]+0.050*[#  16]+0.050*[#  17]+0.007*[#   9]+0.007*[#  12]+
          +0.007*[#   1]+0.002*[#   3]+0.002*[#   4]+0.002*[#   5]+0.001*[#  10]+
          +0.001*[#  11]+0.001*[#  13]+
    |psi|^2 = 0.955
==== e(  15) =    23.48554 eV ==== 
     psi = 0.578*[#   2]+0.055*[#   6]+0.055*[#   7]+0.055*[#   8]+0.034*[#  15]+
          +0.034*[#  16]+0.034*[#  17]+0.016*[#   1]+0.004*[#  14]+0.003*[#  10]+
          +0.003*[#  11]+0.003*[#  13]+
    |psi|^2 = 0.877

 k =   0.2750813512 -0.1303016927 -0.0723898293
==== e(   1) =   -73.30732 eV ==== 
     psi = 0.975*[#   1]+0.007*[#   2]+0.004*[#   6]+0.004*[#   7]+0.004*[#   8]+
          +0.002*[#  15]+0.002*[#  16]+0.002*[#  17]+
    |psi|^2 = 1.000
==== e(   2) =   -39.21704 eV ==== 
     psi = 0.329*[#   3]+0.329*[#   4]+0.329*[#   5]+0.002*[#   6]+0.002*[#   7]+
          +0.002*[#   8]+0.001*[#  14]+
    |psi|^2 = 0.998
==== e(   3) =   -39.15723 eV ==== 
     psi = 0.330*[#   3]+0.330*[#   4]+0.330*[#   5]+0.001*[#  15]+0.001*[#  16]+
          +0.001*[#  17]+0.001*[#   6]+0.001*[#   7]+0.001*[#   8]+
    |psi|^2 = 0.998
==== e(   4) =   -39.13897 eV ==== 
     psi = 0.330*[#   3]+0.330*[#   4]+0.330*[#   5]+0.002*[#   6]+0.002*[#   7]+
          +0.002*[#   8]+
    |psi|^2 = 0.998
==== e(   5) =    -5.69816 eV ==== 
     psi = 0.819*[#  14]+0.050*[#   6]+0.050*[#   7]+0.050*[#   8]+0.012*[#   9]+
          +0.012*[#  12]+0.004*[#   2]+0.001*[#   3]+0.001*[#   4]+0.001*[#   5]+
    |psi|^2 = 1.000
==== e(   6) =     6.20303 eV ==== 
     psi = 0.225*[#  15]+0.225*[#  16]+0.225*[#  17]+0.121*[#   2]+0.034*[#  10]+
          +0.034*[#  11]+0.034*[#  13]+0.025*[#   6]+0.025*[#   7]+0.025*[#   8]+
          +0.008*[#   9]+0.008*[#  12]+0.004*[#  14]+0.004*[#   1]+
    |psi|^2 = 0.999
==== e(   7) =     7.69078 eV ==== 
     psi = 0.235*[#  15]+0.235*[#  16]+0.235*[#  17]+0.079*[#   9]+0.079*[#  12]+
          +0.022*[#   6]+0.022*[#   7]+0.022*[#   8]+0.021*[#  10]+0.021*[#  11]+
          +0.021*[#  13]+0.003*[#   2]+0.001*[#   3]+0.001*[#   4]+0.001*[#   5]+
    |psi|^2 = 0.998
==== e(   8) =     7.96564 eV ==== 
     psi = 0.237*[#  15]+0.237*[#  16]+0.237*[#  17]+0.112*[#   9]+0.112*[#  12]+
          +0.010*[#  10]+0.010*[#  11]+0.010*[#  13]+0.010*[#   6]+0.010*[#   7]+
          +0.010*[#   8]+0.002*[#   2]+
    |psi|^2 = 0.998
==== e(   9) =    12.38527 eV ==== 
     psi = 0.292*[#  10]+0.292*[#  11]+0.292*[#  13]+0.032*[#   9]+0.032*[#  12]+
          +0.015*[#  15]+0.015*[#  16]+0.015*[#  17]+0.005*[#  14]+0.002*[#   2]+
          +0.002*[#   6]+0.002*[#   7]+0.002*[#   8]+
    |psi|^2 = 0.997
==== e(  10) =    12.75576 eV ==== 
     psi = 0.297*[#  10]+0.297*[#  11]+0.297*[#  13]+0.037*[#   9]+0.037*[#  12]+
          +0.009*[#  15]+0.009*[#  16]+0.009*[#  17]+0.002*[#  14]+
    |psi|^2 = 0.999
==== e(  11) =    13.00321 eV ==== 
     psi = 0.303*[#  10]+0.303*[#  11]+0.303*[#  13]+0.025*[#  15]+0.025*[#  16]+
          +0.025*[#  17]+0.006*[#   9]+0.006*[#  12]+0.005*[#   2]+
    |psi|^2 = 1.000
==== e(  12) =    13.74599 eV ==== 
     psi = 0.349*[#   9]+0.349*[#  12]+0.054*[#  15]+0.054*[#  16]+0.054*[#  17]+
          +0.030*[#  14]+0.029*[#  10]+0.029*[#  11]+0.029*[#  13]+0.005*[#   2]+
          +0.005*[#   6]+0.005*[#   7]+0.005*[#   8]+
    |psi|^2 = 0.998
==== e(  13) =    14.47604 eV ==== 
     psi = 0.358*[#   9]+0.358*[#  12]+0.085*[#  15]+0.085*[#  16]+0.085*[#  17]+
          +0.006*[#  14]+0.005*[#   2]+0.003*[#  10]+0.003*[#  11]+0.003*[#  13]+
          +0.002*[#   6]+0.002*[#   7]+0.002*[#   8]+
    |psi|^2 = 0.998
==== e(  14) =    21.11070 eV ==== 
     psi = 0.182*[#   6]+0.182*[#   7]+0.182*[#   8]+0.131*[#   2]+0.100*[#  14]+
          +0.047*[#  15]+0.047*[#  16]+0.047*[#  17]+0.006*[#   9]+0.006*[#  12]+
          +0.004*[#  10]+0.004*[#  11]+0.004*[#  13]+
    |psi|^2 = 0.943
==== e(  15) =    23.09434 eV ==== 
     psi = 0.547*[#   2]+0.077*[#   6]+0.077*[#   7]+0.077*[#   8]+0.039*[#  15]+
          +0.039*[#  16]+0.039*[#  17]+0.011*[#   1]+0.007*[#  14]+0.003*[#  10]+
          +0.003*[#  11]+0.003*[#  13]+
    |psi|^2 = 0.924

 k =   0.2461254195 -0.1013457610 -0.0434338976
==== e(   1) =   -73.30873 eV ==== 
     psi = 0.984*[#   1]+0.009*[#   2]+0.001*[#  15]+0.001*[#  16]+0.001*[#  17]+
    |psi|^2 = 1.000
==== e(   2) =   -39.20249 eV ==== 
     psi = 0.331*[#   3]+0.331*[#   4]+0.331*[#   5]+0.001*[#  14]+0.001*[#  15]+
          +0.001*[#  16]+0.001*[#  17]+
    |psi|^2 = 0.998
==== e(   3) =   -39.19638 eV ==== 
     psi = 0.330*[#   3]+0.330*[#   4]+0.330*[#   5]+0.003*[#  15]+0.003*[#  16]+
          +0.003*[#  17]+
    |psi|^2 = 0.998
==== e(   4) =   -39.15375 eV ==== 
     psi = 0.330*[#   3]+0.330*[#   4]+0.330*[#   5]+0.002*[#   6]+0.002*[#   7]+
          +0.002*[#   8]+0.001*[#  15]+0.001*[#  16]+0.001*[#  17]+
    |psi|^2 = 0.998
==== e(   5) =    -5.65987 eV ==== 
     psi = 0.867*[#  14]+0.029*[#   6]+0.029*[#   7]+0.029*[#   8]+0.022*[#   9]+
          +0.022*[#  12]+
    |psi|^2 = 0.999
==== e(   6) =     6.87294 eV ==== 
     psi = 0.238*[#  15]+0.238*[#  16]+0.238*[#  17]+0.078*[#   2]+0.029*[#  10]+
          +0.029*[#  11]+0.029*[#  13]+0.027*[#   6]+0.027*[#   7]+0.027*[#   8]+
          +0.018*[#   9]+0.018*[#  12]+0.002*[#   1]+0.001*[#   3]+0.001*[#   4]+
          +0.001*[#   5]+
    |psi|^2 = 0.999
==== e(   7) =     7.40354 eV ==== 
     psi = 0.248*[#  15]+0.248*[#  16]+0.248*[#  17]+0.046*[#   6]+0.046*[#   7]+
          +0.046*[#   8]+0.028*[#  10]+0.028*[#  11]+0.028*[#  13]+0.012*[#   9]+
          +0.012*[#  12]+0.002*[#   3]+0.002*[#   4]+0.002*[#   5]+0.002*[#   2]+
    |psi|^2 = 0.999
==== e(   8) =     7.93967 eV ==== 
     psi = 0.245*[#  15]+0.245*[#  16]+0.245*[#  17]+0.101*[#   9]+0.101*[#  12]+
          +0.014*[#   6]+0.014*[#   7]+0.014*[#   8]+0.007*[#   2]+0.004*[#  10]+
          +0.004*[#  11]+0.004*[#  13]+
    |psi|^2 = 0.999
==== e(   9) =    12.32896 eV ==== 
     psi = 0.280*[#  10]+0.280*[#  11]+0.280*[#  13]+0.039*[#   9]+0.039*[#  12]+
          +0.023*[#  15]+0.023*[#  16]+0.023*[#  17]+0.006*[#  14]+0.002*[#   2]+
    |psi|^2 = 0.996
==== e(  10) =    12.66437 eV ==== 
     psi = 0.307*[#  10]+0.307*[#  11]+0.307*[#  13]+0.021*[#  15]+0.021*[#  16]+
          +0.021*[#  17]+0.006*[#   9]+0.006*[#  12]+
    |psi|^2 = 0.998
==== e(  11) =    13.05491 eV ==== 
     psi = 0.318*[#  10]+0.318*[#  11]+0.318*[#  13]+0.011*[#  15]+0.011*[#  16]+
          +0.011*[#  17]+0.006*[#   9]+0.006*[#  12]+
    |psi|^2 = 1.000
==== e(  12) =    13.28374 eV ==== 
     psi = 0.405*[#   9]+0.405*[#  12]+0.043*[#  14]+0.023*[#  10]+0.023*[#  11]+
          +0.023*[#  13]+0.022*[#  15]+0.022*[#  16]+0.022*[#  17]+0.007*[#   2]+
          +0.002*[#   6]+0.002*[#   7]+0.002*[#   8]+
    |psi|^2 = 0.999
==== e(  13) =    14.09799 eV ==== 
     psi = 0.387*[#   9]+0.387*[#  12]+0.065*[#  15]+0.065*[#  16]+0.065*[#  17]+
          +0.022*[#   2]+0.002*[#   6]+0.002*[#   7]+0.002*[#   8]+
    |psi|^2 = 0.999
==== e(  14) =    22.48805 eV ==== 
     psi = 0.781*[#   2]+0.044*[#  15]+0.044*[#  16]+0.044*[#  17]+0.014*[#   6]+
          +0.014*[#   7]+0.014*[#   8]+0.010*[#   1]+0.003*[#   9]+0.003*[#  12]+
    |psi|^2 = 0.974
==== e(  15) =    23.16447 eV ==== 
     psi = 0.239*[#   6]+0.239*[#   7]+0.239*[#   8]+0.041*[#  14]+0.027*[#  15]+
          +0.027*[#  16]+0.027*[#  17]+0.025*[#   2]+0.006*[#  10]+0.006*[#  11]+
          +0.006*[#  13]+0.001*[#   9]+0.001*[#  12]+0.001*[#   1]+
    |psi|^2 = 0.885

 k =   0.0723898293  0.0723898293 -0.2750813512
==== e(   1) =   -73.30720 eV ==== 
     psi = 0.982*[#   1]+0.008*[#   2]+0.002*[#  15]+0.002*[#  16]+0.002*[#  17]+
          +0.001*[#   6]+0.001*[#   7]+0.001*[#   8]+
    |psi|^2 = 1.000
==== e(   2) =   -39.21411 eV ==== 
     psi = 0.330*[#   3]+0.330*[#   4]+0.330*[#   5]+0.001*[#  14]+0.001*[#   6]+
          +0.001*[#   7]+0.001*[#   8]+0.001*[#  15]+0.001*[#  16]+0.001*[#  17]+
    |psi|^2 = 0.998
==== e(   3) =   -39.16927 eV ==== 
     psi = 0.330*[#   3]+0.330*[#   4]+0.330*[#   5]+0.002*[#  15]+0.002*[#  16]+
          +0.002*[#  17]+
    |psi|^2 = 0.998
==== e(   4) =   -39.14094 eV ==== 
     psi = 0.330*[#   3]+0.330*[#   4]+0.330*[#   5]+0.002*[#   6]+0.002*[#   7]+
          +0.002*[#   8]+
    |psi|^2 = 0.998
==== e(   5) =    -5.67407 eV ==== 
     psi = 0.845*[#  14]+0.039*[#   6]+0.039*[#   7]+0.039*[#   8]+0.016*[#   9]+
          +0.016*[#  12]+0.002*[#   2]+
    |psi|^2 = 0.999
==== e(   6) =     6.39365 eV ==== 
     psi = 0.231*[#  15]+0.231*[#  16]+0.231*[#  17]+0.106*[#   2]+0.035*[#  10]+
          +0.035*[#  11]+0.035*[#  13]+0.029*[#   6]+0.029*[#   7]+0.029*[#   8]+
          +0.003*[#   1]+0.001*[#   3]+0.001*[#   4]+0.001*[#   5]+
    |psi|^2 = 1.000
==== e(   7) =     7.52503 eV ==== 
     psi = 0.239*[#  15]+0.239*[#  16]+0.239*[#  17]+0.061*[#   9]+0.061*[#  12]+
          +0.030*[#   6]+0.030*[#   7]+0.030*[#   8]+0.020*[#  10]+0.020*[#  11]+
          +0.020*[#  13]+0.006*[#   2]+0.002*[#   3]+0.002*[#   4]+0.002*[#   5]+
    |psi|^2 = 0.998
==== e(   8) =     8.08488 eV ==== 
     psi = 0.239*[#  15]+0.239*[#  16]+0.239*[#  17]+0.119*[#   9]+0.119*[#  12]+
          +0.009*[#   6]+0.009*[#   7]+0.009*[#   8]+0.005*[#  10]+0.005*[#  11]+
          +0.005*[#  13]+
    |psi|^2 = 0.999
==== e(   9) =    12.20518 eV ==== 
     psi = 0.287*[#  10]+0.287*[#  11]+0.287*[#  13]+0.031*[#   9]+0.031*[#  12]+
          +0.019*[#  15]+0.019*[#  16]+0.019*[#  17]+0.006*[#  14]+0.003*[#   2]+
          +0.002*[#   6]+0.002*[#   7]+0.002*[#   8]+
    |psi|^2 = 0.996
==== e(  10) =    12.85742 eV ==== 
     psi = 0.325*[#  10]+0.325*[#  11]+0.325*[#  13]+0.011*[#   9]+0.011*[#  12]+
    |psi|^2 = 1.000
==== e(  11) =    13.00261 eV ==== 
     psi = 0.292*[#  10]+0.292*[#  11]+0.292*[#  13]+0.027*[#  15]+0.027*[#  16]+
          +0.027*[#  17]+0.017*[#   9]+0.017*[#  12]+0.006*[#   2]+0.001*[#  14]+
    |psi|^2 = 0.999
==== e(  12) =    13.74319 eV ==== 
     psi = 0.369*[#   9]+0.369*[#  12]+0.045*[#  15]+0.045*[#  16]+0.045*[#  17]+
          +0.039*[#  14]+0.021*[#  10]+0.021*[#  11]+0.021*[#  13]+0.006*[#   2]+
          +0.005*[#   6]+0.005*[#   7]+0.005*[#   8]+
    |psi|^2 = 0.998
==== e(  13) =    14.22325 eV ==== 
     psi = 0.370*[#   9]+0.370*[#  12]+0.080*[#  15]+0.080*[#  16]+0.080*[#  17]+
          +0.004*[#  10]+0.004*[#  11]+0.004*[#  13]+0.003*[#   6]+0.003*[#   7]+
          +0.003*[#   8]+
    |psi|^2 = 0.999
==== e(  14) =    21.75945 eV ==== 
     psi = 0.185*[#   6]+0.185*[#   7]+0.185*[#   8]+0.183*[#   2]+0.074*[#  14]+
          +0.033*[#  15]+0.033*[#  16]+0.033*[#  17]+0.004*[#  10]+0.004*[#  11]+
          +0.004*[#  13]+0.002*[#   9]+0.002*[#  12]+
    |psi|^2 = 0.930
==== e(  15) =    22.75355 eV ==== 
     psi = 0.572*[#   2]+0.065*[#   6]+0.065*[#   7]+0.065*[#   8]+0.045*[#  15]+
          +0.045*[#  16]+0.045*[#  17]+0.011*[#  14]+0.008*[#   1]+0.003*[#  10]+
          +0.003*[#  11]+0.003*[#  13]+0.002*[#   9]+0.002*[#  12]+
    |psi|^2 = 0.934

 k =   0.1013457610  0.1013457610  0.1013457610
==== e(   1) =   -73.30417 eV ==== 
     psi = 0.973*[#   1]+0.004*[#   6]+0.004*[#   7]+0.004*[#   8]+0.003*[#   2]+
          +0.003*[#  15]+0.003*[#  16]+0.003*[#  17]+
    |psi|^2 = 1.000
==== e(   2) =   -39.25296 eV ==== 
     psi = 0.327*[#   3]+0.327*[#   4]+0.327*[#   5]+0.006*[#   6]+0.006*[#   7]+
          +0.006*[#   8]+0.001*[#  14]+
    |psi|^2 = 0.998
==== e(   3) =   -39.10312 eV ==== 
     psi = 0.330*[#   3]+0.330*[#   4]+0.330*[#   5]+0.003*[#   6]+0.003*[#   7]+
          +0.003*[#   8]+
    |psi|^2 = 0.999
==== e(   4) =   -39.10312 eV ==== 
     psi = 0.330*[#   3]+0.330*[#   4]+0.330*[#   5]+0.003*[#   6]+0.003*[#   7]+
          +0.003*[#   8]+
    |psi|^2 = 0.999
==== e(   5) =    -5.72855 eV ==== 
     psi = 0.767*[#  14]+0.073*[#   6]+0.073*[#   7]+0.073*[#   8]+0.005*[#   2]+
          +0.003*[#   3]+0.003*[#   4]+0.003*[#   5]+0.002*[#   1]+
    |psi|^2 = 1.000
==== e(   6) =     5.55579 eV ==== 
     psi = 0.220*[#  15]+0.220*[#  16]+0.220*[#  17]+0.189*[#   2]+0.044*[#  10]+
          +0.044*[#  11]+0.044*[#  13]+0.007*[#  14]+0.006*[#   1]+0.002*[#   6]+
          +0.002*[#   7]+0.002*[#   8]+
    |psi|^2 = 0.999
==== e(   7) =     7.85202 eV ==== 
     psi = 0.222*[#  15]+0.222*[#  16]+0.222*[#  17]+0.146*[#   9]+0.146*[#  12]+
          +0.014*[#  10]+0.014*[#  11]+0.014*[#  13]+
    |psi|^2 = 0.998
==== e(   8) =     7.85202 eV ==== 
     psi = 0.222*[#  15]+0.222*[#  16]+0.222*[#  17]+0.146*[#   9]+0.146*[#  12]+
          +0.014*[#  10]+0.014*[#  11]+0.014*[#  13]+
    |psi|^2 = 0.998
==== e(   9) =    12.73222 eV ==== 
     psi = 0.314*[#  10]+0.314*[#  11]+0.314*[#  13]+0.024*[#   9]+0.024*[#  12]+
          +0.003*[#  15]+0.003*[#  16]+0.003*[#  17]+
    |psi|^2 = 1.000
==== e(  10) =    12.73222 eV ==== 
     psi = 0.314*[#  10]+0.314*[#  11]+0.314*[#  13]+0.024*[#   9]+0.024*[#  12]+
          +0.003*[#  15]+0.003*[#  16]+0.003*[#  17]+
    |psi|^2 = 1.000
==== e(  11) =    12.98253 eV ==== 
     psi = 0.287*[#  10]+0.287*[#  11]+0.287*[#  13]+0.041*[#  15]+0.041*[#  16]+
          +0.041*[#  17]+0.010*[#   2]+0.002*[#  14]+0.001*[#   6]+0.001*[#   7]+
          +0.001*[#   8]+
    |psi|^2 = 0.999
==== e(  12) =    14.78837 eV ==== 
     psi = 0.330*[#   9]+0.330*[#  12]+0.107*[#  15]+0.107*[#  16]+0.107*[#  17]+
          +0.006*[#  10]+0.006*[#  11]+0.006*[#  13]+
    |psi|^2 = 0.998
==== e(  13) =    14.78837 eV ==== 
     psi = 0.330*[#   9]+0.330*[#  12]+0.107*[#  15]+0.107*[#  16]+0.107*[#  17]+
          +0.006*[#  10]+0.006*[#  11]+0.006*[#  13]+
    |psi|^2 = 0.998
==== e(  14) =    19.26114 eV ==== 
     psi = 0.218*[#   6]+0.218*[#   7]+0.218*[#   8]+0.203*[#  14]+0.018*[#   2]+
          +0.015*[#  15]+0.015*[#  16]+0.015*[#  17]+0.005*[#   1]+0.003*[#   3]+
          +0.003*[#   4]+0.003*[#   5]+
    |psi|^2 = 0.932
==== e(  15) =    23.12619 eV ==== 
     psi = 0.729*[#   2]+0.052*[#  15]+0.052*[#  16]+0.052*[#  17]+0.012*[#   1]+
          +0.009*[#   6]+0.009*[#   7]+0.009*[#   8]+0.002*[#  10]+0.002*[#  11]+
          +0.002*[#  13]+
    |psi|^2 = 0.932

 k =   0.3040372829 -0.1013457610 -0.1013457610
==== e(   1) =   -73.30768 eV ==== 
     psi = 0.982*[#   1]+0.004*[#   2]+0.003*[#  15]+0.003*[#  16]+0.003*[#  17]+
          +0.001*[#   6]+0.001*[#   7]+0.001*[#   8]+
    |psi|^2 = 1.000
==== e(   2) =   -39.23544 eV ==== 
     psi = 0.328*[#   3]+0.328*[#   4]+0.328*[#   5]+0.004*[#   6]+0.004*[#   7]+
          +0.004*[#   8]+0.001*[#  14]+
    |psi|^2 = 0.998
==== e(   3) =   -39.14121 eV ==== 
     psi = 0.330*[#   3]+0.330*[#   4]+0.330*[#   5]+0.002*[#   6]+0.002*[#   7]+
          +0.002*[#   8]+
    |psi|^2 = 0.998
==== e(   4) =   -39.13058 eV ==== 
     psi = 0.330*[#   3]+0.330*[#   4]+0.330*[#   5]+0.003*[#   6]+0.003*[#   7]+
          +0.003*[#   8]+
    |psi|^2 = 0.999
==== e(   5) =    -5.67650 eV ==== 
     psi = 0.798*[#  14]+0.062*[#   6]+0.062*[#   7]+0.062*[#   8]+0.004*[#   9]+
          +0.004*[#  12]+0.002*[#   3]+0.002*[#   4]+0.002*[#   5]+
    |psi|^2 = 1.000
==== e(   6) =     5.70499 eV ==== 
     psi = 0.222*[#  15]+0.222*[#  16]+0.222*[#  17]+0.169*[#   2]+0.042*[#  10]+
          +0.042*[#  11]+0.042*[#  13]+0.011*[#   6]+0.011*[#   7]+0.011*[#   8]+
          +0.005*[#   1]+0.001*[#   9]+0.001*[#  12]+
    |psi|^2 = 1.000
==== e(   7) =     7.74738 eV ==== 
     psi = 0.227*[#  15]+0.227*[#  16]+0.227*[#  17]+0.114*[#   9]+0.114*[#  12]+
          +0.018*[#  10]+0.018*[#  11]+0.018*[#  13]+0.011*[#   6]+0.011*[#   7]+
          +0.011*[#   8]+
    |psi|^2 = 0.998
==== e(   8) =     7.83986 eV ==== 
     psi = 0.225*[#  15]+0.225*[#  16]+0.225*[#  17]+0.144*[#   9]+0.144*[#  12]+
          +0.010*[#  10]+0.010*[#  11]+0.010*[#  13]+0.002*[#   6]+0.002*[#   7]+
          +0.002*[#   8]+
    |psi|^2 = 0.998
==== e(   9) =    12.67164 eV ==== 
     psi = 0.300*[#  10]+0.300*[#  11]+0.300*[#  13]+0.038*[#   9]+0.038*[#  12]+
          +0.005*[#  15]+0.005*[#  16]+0.005*[#  17]+0.004*[#  14]+0.002*[#   6]+
          +0.002*[#   7]+0.002*[#   8]+
    |psi|^2 = 0.999
==== e(  10) =    12.75447 eV ==== 
     psi = 0.320*[#  10]+0.320*[#  11]+0.320*[#  13]+0.017*[#   9]+0.017*[#  12]+
          +0.002*[#  15]+0.002*[#  16]+0.002*[#  17]+
    |psi|^2 = 0.999
==== e(  11) =    12.98984 eV ==== 
     psi = 0.286*[#  10]+0.286*[#  11]+0.286*[#  13]+0.042*[#  15]+0.042*[#  16]+
          +0.042*[#  17]+0.010*[#   2]+0.002*[#   9]+0.002*[#  12]+
    |psi|^2 = 0.999
==== e(  12) =    14.36845 eV ==== 
     psi = 0.335*[#   9]+0.335*[#  12]+0.082*[#  15]+0.082*[#  16]+0.082*[#  17]+
          +0.020*[#  14]+0.014*[#  10]+0.014*[#  11]+0.014*[#  13]+0.006*[#   6]+
          +0.006*[#   7]+0.006*[#   8]+0.002*[#   2]+
    |psi|^2 = 0.997
==== e(  13) =    14.76748 eV ==== 
     psi = 0.340*[#   9]+0.340*[#  12]+0.102*[#  15]+0.102*[#  16]+0.102*[#  17]+
          +0.004*[#  10]+0.004*[#  11]+0.004*[#  13]+
    |psi|^2 = 0.998
==== e(  14) =    20.20900 eV ==== 
     psi = 0.230*[#   6]+0.230*[#   7]+0.230*[#   8]+0.155*[#  14]+0.016*[#  15]+
          +0.016*[#  16]+0.016*[#  17]+0.005*[#   9]+0.005*[#  12]+0.004*[#   2]+
          +0.003*[#  10]+0.003*[#  11]+0.003*[#  13]+0.002*[#   3]+0.002*[#   4]+
          +0.002*[#   5]+
    |psi|^2 = 0.920
==== e(  15) =    22.87043 eV ==== 
     psi = 0.706*[#   2]+0.062*[#  15]+0.062*[#  16]+0.062*[#  17]+0.020*[#   6]+
          +0.020*[#   7]+0.020*[#   8]+0.008*[#   1]+0.002*[#  10]+0.002*[#  11]+
          +0.002*[#  13]+
    |psi|^2 = 0.966

Lowdin Charges: 

     Atom #   1: total charge =  15.6502, s =  2.2198, 
     Atom #   1: total charge =  15.6502, p =  6.7179, pz=  2.2393, px=  2.2393, py=  2.2393, 
     Atom #   1: total charge =  15.6502, d =  6.7125, dz2=  0.7737, dxz=  1.7217, dyz=  1.7217, dx2-y2=  0.7737, dxy=  1.7217, 
     Atom #   2: total charge =   6.3137, s =  1.6286, 
     Atom #   2: total charge =   6.3137, p =  4.6851, pz=  1.5617, px=  1.5617, py=  1.5617, 
     Atom #   2: total charge =   6.3137, d =  0.0000, dz2=  0.0000, dxz=  0.0000, dyz=  0.0000, dx2-y2=  0.0000, dxy=  0.0000, 
     Spilling Parameter:   0.0016

     PROJWFC      :     2.22s CPU         2.39s WALL


   This run was terminated on:  18:26:42  15Aug2017            

=------------------------------------------------------------------------------=
   JOB DONE.
=------------------------------------------------------------------------------=
