
     Program PWSCF v.6.1 (svn rev. 13369) starts on 15Aug2017 at 18:26:43 

     This program is part of the open-source Quantum ESPRESSO suite
     for quantum simulation of materials; please cite
         "P. Giannozzi et al., J. Phys.:Condens. Matter 21 395502 (2009);
          URL http://www.quantum-espresso.org", 
     in publications or presentations arising from this work. More details at
     http://www.quantum-espresso.org/quote

     Parallel version (MPI), running on     8 processors
     R & G space division:  proc/nbgrp/npool/nimage =       8
     Waiting for input...
     Reading input from standard input

     Current dimensions of program PWSCF are:
     Max number of different atomic species (ntypx) = 10
     Max number of k-points (npk) =  40000
     Max angular momentum in pseudopotentials (lmaxx) =  3

     Atomic positions and unit cell read from directory:
     ./outdir/pwscf.save/

               file Fe.pz-spn-kjpaw_psl.0.2.1.UPF: wavefunction(s)  3D renormalized
               file O.pz-n-kjpaw_psl.0.1.UPF: wavefunction(s)  2P renormalized

     Subspace diagonalization in iterative solution of the eigenvalue problem:
     a serial algorithm will be used


     Parallelization info
     --------------------
     sticks:   dense  smooth     PW     G-vecs:    dense   smooth      PW
     Min          33      33     11                  371      371      70
     Max          35      35     12                  372      372      71
     Sum         271     271     91                 2975     2975     561



     bravais-lattice index     =            0
     lattice parameter (alat)  =       1.8900  a.u.
     unit-cell volume          =     135.7822 (a.u.)^3
     number of atoms/cell      =            2
     number of atomic types    =            2
     number of electrons       =        22.00
     number of Kohn-Sham states=           15
     kinetic-energy cutoff     =      30.0000  Ry
     charge density cutoff     =     120.0000  Ry
     Exchange-correlation      =  SLA  PZ   NOGX NOGC ( 1  1  0  0 0 0)

     celldm(1)=   1.890000  celldm(2)=   0.000000  celldm(3)=   0.000000
     celldm(4)=   0.000000  celldm(5)=   0.000000  celldm(6)=   0.000000

     crystal axes: (cart. coord. in units of alat)
               a(1) = (   2.158452   2.158452   0.000000 )  
               a(2) = (   2.158452   0.000000   2.158452 )  
               a(3) = (   0.000000   2.158452   2.158452 )  

     reciprocal axes: (cart. coord. in units 2 pi/alat)
               b(1) = (  0.231647  0.231647 -0.231647 )  
               b(2) = (  0.231647 -0.231647  0.231647 )  
               b(3) = ( -0.231647  0.231647  0.231647 )  


     PseudoPot. # 1 for Fe read from file:
     ./Fe.pz-spn-kjpaw_psl.0.2.1.UPF
     MD5 check sum: 27df73d5ef6bc58e09d33ce26ec3cbe0
     Pseudo is Projector augmented-wave + core cor, Zval = 16.0
     Generated using "atomic" code by A. Dal Corso  v.5.0.99 svn rev. 10869
     Shape of augmentation charge: PSQ
     Using radial grid of 1191 points,  6 beta functions with: 
                l(1) =   0
                l(2) =   0
                l(3) =   1
                l(4) =   1
                l(5) =   2
                l(6) =   2
     Q(r) pseudized with 0 coefficients 


     PseudoPot. # 2 for  O read from file:
     ./O.pz-n-kjpaw_psl.0.1.UPF
     MD5 check sum: ca354609ecacc13f4887e8db23a80a40
     Pseudo is Projector augmented-wave + core cor, Zval =  6.0
     Generated using "atomic" code by A. Dal Corso  v.5.0.99 svn rev. 10869
     Shape of augmentation charge: BESSEL
     Using radial grid of 1095 points,  4 beta functions with: 
                l(1) =   0
                l(2) =   0
                l(3) =   1
                l(4) =   1
     Q(r) pseudized with 0 coefficients 


     atomic species   valence    mass     pseudopotential
        Fe            16.00     1.00000     Fe( 1.00)
        O              6.00     1.00000      O( 1.00)

     48 Sym. Ops., with inversion, found


                                    s                        frac. trans.

      isym =  1     identity                                     

 cryst.   s( 1) = (     1          0          0      )
                  (     0          1          0      )
                  (     0          0          1      )

 cart.    s( 1) = (  1.0000000  0.0000000  0.0000000 )
                  (  0.0000000  1.0000000  0.0000000 )
                  (  0.0000000  0.0000000  1.0000000 )


      isym =  2     180 deg rotation - cart. axis [0,0,1]        

 cryst.   s( 2) = (    -1          0          0      )
                  (    -1          0          1      )
                  (    -1          1          0      )

 cart.    s( 2) = ( -1.0000000  0.0000000  0.0000000 )
                  (  0.0000000 -1.0000000  0.0000000 )
                  (  0.0000000  0.0000000  1.0000000 )


      isym =  3     180 deg rotation - cart. axis [0,1,0]        

 cryst.   s( 3) = (     0         -1          1      )
                  (     0         -1          0      )
                  (     1         -1          0      )

 cart.    s( 3) = ( -1.0000000  0.0000000  0.0000000 )
                  (  0.0000000  1.0000000  0.0000000 )
                  (  0.0000000  0.0000000 -1.0000000 )


      isym =  4     180 deg rotation - cart. axis [1,0,0]        

 cryst.   s( 4) = (     0          1         -1      )
                  (     1          0         -1      )
                  (     0          0         -1      )

 cart.    s( 4) = (  1.0000000  0.0000000  0.0000000 )
                  (  0.0000000 -1.0000000  0.0000000 )
                  (  0.0000000  0.0000000 -1.0000000 )


      isym =  5     180 deg rotation - cart. axis [1,1,0]        

 cryst.   s( 5) = (     1          0          0      )
                  (     1         -1          0      )
                  (     1          0         -1      )

 cart.    s( 5) = (  0.0000000  1.0000000  0.0000000 )
                  (  1.0000000  0.0000000  0.0000000 )
                  (  0.0000000  0.0000000 -1.0000000 )


      isym =  6     180 deg rotation - cart. axis [1,-1,0]       

 cryst.   s( 6) = (    -1          0          0      )
                  (     0          0         -1      )
                  (     0         -1          0      )

 cart.    s( 6) = (  0.0000000 -1.0000000  0.0000000 )
                  ( -1.0000000  0.0000000  0.0000000 )
                  (  0.0000000  0.0000000 -1.0000000 )


      isym =  7      90 deg rotation - cart. axis [0,0,-1]       

 cryst.   s( 7) = (     0          1         -1      )
                  (    -1          1          0      )
                  (     0          1          0      )

 cart.    s( 7) = (  0.0000000  1.0000000  0.0000000 )
                  ( -1.0000000  0.0000000  0.0000000 )
                  (  0.0000000  0.0000000  1.0000000 )


      isym =  8      90 deg rotation - cart. axis [0,0,1]        

 cryst.   s( 8) = (     0         -1          1      )
                  (     0          0          1      )
                  (    -1          0          1      )

 cart.    s( 8) = (  0.0000000 -1.0000000  0.0000000 )
                  (  1.0000000  0.0000000  0.0000000 )
                  (  0.0000000  0.0000000  1.0000000 )


      isym =  9     180 deg rotation - cart. axis [1,0,1]        

 cryst.   s( 9) = (    -1          1          0      )
                  (     0          1          0      )
                  (     0          1         -1      )

 cart.    s( 9) = (  0.0000000  0.0000000  1.0000000 )
                  (  0.0000000 -1.0000000  0.0000000 )
                  (  1.0000000  0.0000000  0.0000000 )


      isym = 10     180 deg rotation - cart. axis [-1,0,1]       

 cryst.   s(10) = (     0          0         -1      )
                  (     0         -1          0      )
                  (    -1          0          0      )

 cart.    s(10) = (  0.0000000  0.0000000 -1.0000000 )
                  (  0.0000000 -1.0000000  0.0000000 )
                  ( -1.0000000  0.0000000  0.0000000 )


      isym = 11      90 deg rotation - cart. axis [0,1,0]        

 cryst.   s(11) = (     1         -1          0      )
                  (     1          0         -1      )
                  (     1          0          0      )

 cart.    s(11) = (  0.0000000  0.0000000  1.0000000 )
                  (  0.0000000  1.0000000  0.0000000 )
                  ( -1.0000000  0.0000000  0.0000000 )


      isym = 12      90 deg rotation - cart. axis [0,-1,0]       

 cryst.   s(12) = (     0          0          1      )
                  (    -1          0          1      )
                  (     0         -1          1      )

 cart.    s(12) = (  0.0000000  0.0000000 -1.0000000 )
                  (  0.0000000  1.0000000  0.0000000 )
                  (  1.0000000  0.0000000  0.0000000 )


      isym = 13     180 deg rotation - cart. axis [0,1,1]        

 cryst.   s(13) = (    -1          0          1      )
                  (     0         -1          1      )
                  (     0          0          1      )

 cart.    s(13) = ( -1.0000000  0.0000000  0.0000000 )
                  (  0.0000000  0.0000000  1.0000000 )
                  (  0.0000000  1.0000000  0.0000000 )


      isym = 14     180 deg rotation - cart. axis [0,1,-1]       

 cryst.   s(14) = (     0         -1          0      )
                  (    -1          0          0      )
                  (     0          0         -1      )

 cart.    s(14) = ( -1.0000000  0.0000000  0.0000000 )
                  (  0.0000000  0.0000000 -1.0000000 )
                  (  0.0000000 -1.0000000  0.0000000 )


      isym = 15      90 deg rotation - cart. axis [-1,0,0]       

 cryst.   s(15) = (     1          0         -1      )
                  (     1          0          0      )
                  (     1         -1          0      )

 cart.    s(15) = (  1.0000000  0.0000000  0.0000000 )
                  (  0.0000000  0.0000000  1.0000000 )
                  (  0.0000000 -1.0000000  0.0000000 )


      isym = 16      90 deg rotation - cart. axis [1,0,0]        

 cryst.   s(16) = (     0          1          0      )
                  (     0          1         -1      )
                  (    -1          1          0      )

 cart.    s(16) = (  1.0000000  0.0000000  0.0000000 )
                  (  0.0000000  0.0000000 -1.0000000 )
                  (  0.0000000  1.0000000  0.0000000 )


      isym = 17     120 deg rotation - cart. axis [-1,-1,-1]     

 cryst.   s(17) = (     0          1          0      )
                  (     0          0          1      )
                  (     1          0          0      )

 cart.    s(17) = (  0.0000000  1.0000000  0.0000000 )
                  (  0.0000000  0.0000000  1.0000000 )
                  (  1.0000000  0.0000000  0.0000000 )


      isym = 18     120 deg rotation - cart. axis [-1,1,1]       

 cryst.   s(18) = (     0         -1          0      )
                  (     1         -1          0      )
                  (     0         -1          1      )

 cart.    s(18) = (  0.0000000 -1.0000000  0.0000000 )
                  (  0.0000000  0.0000000  1.0000000 )
                  ( -1.0000000  0.0000000  0.0000000 )


      isym = 19     120 deg rotation - cart. axis [1,1,-1]       

 cryst.   s(19) = (     1          0         -1      )
                  (     0          0         -1      )
                  (     0          1         -1      )

 cart.    s(19) = (  0.0000000  1.0000000  0.0000000 )
                  (  0.0000000  0.0000000 -1.0000000 )
                  ( -1.0000000  0.0000000  0.0000000 )


      isym = 20     120 deg rotation - cart. axis [1,-1,1]       

 cryst.   s(20) = (    -1          0          1      )
                  (    -1          1          0      )
                  (    -1          0          0      )

 cart.    s(20) = (  0.0000000 -1.0000000  0.0000000 )
                  (  0.0000000  0.0000000 -1.0000000 )
                  (  1.0000000  0.0000000  0.0000000 )


      isym = 21     120 deg rotation - cart. axis [1,1,1]        

 cryst.   s(21) = (     0          0          1      )
                  (     1          0          0      )
                  (     0          1          0      )

 cart.    s(21) = (  0.0000000  0.0000000  1.0000000 )
                  (  1.0000000  0.0000000  0.0000000 )
                  (  0.0000000  1.0000000  0.0000000 )


      isym = 22     120 deg rotation - cart. axis [-1,1,-1]      

 cryst.   s(22) = (     0          0         -1      )
                  (     0          1         -1      )
                  (     1          0         -1      )

 cart.    s(22) = (  0.0000000  0.0000000  1.0000000 )
                  ( -1.0000000  0.0000000  0.0000000 )
                  (  0.0000000 -1.0000000  0.0000000 )


      isym = 23     120 deg rotation - cart. axis [1,-1,-1]      

 cryst.   s(23) = (    -1          1          0      )
                  (    -1          0          0      )
                  (    -1          0          1      )

 cart.    s(23) = (  0.0000000  0.0000000 -1.0000000 )
                  ( -1.0000000  0.0000000  0.0000000 )
                  (  0.0000000  1.0000000  0.0000000 )


      isym = 24     120 deg rotation - cart. axis [-1,-1,1]      

 cryst.   s(24) = (     1         -1          0      )
                  (     0         -1          1      )
                  (     0         -1          0      )

 cart.    s(24) = (  0.0000000  0.0000000 -1.0000000 )
                  (  1.0000000  0.0000000  0.0000000 )
                  (  0.0000000 -1.0000000  0.0000000 )


      isym = 25     inversion                                    

 cryst.   s(25) = (    -1          0          0      )
                  (     0         -1          0      )
                  (     0          0         -1      )

 cart.    s(25) = ( -1.0000000  0.0000000  0.0000000 )
                  (  0.0000000 -1.0000000  0.0000000 )
                  (  0.0000000  0.0000000 -1.0000000 )


      isym = 26     inv. 180 deg rotation - cart. axis [0,0,1]   

 cryst.   s(26) = (     1          0          0      )
                  (     1          0         -1      )
                  (     1         -1          0      )

 cart.    s(26) = (  1.0000000  0.0000000  0.0000000 )
                  (  0.0000000  1.0000000  0.0000000 )
                  (  0.0000000  0.0000000 -1.0000000 )


      isym = 27     inv. 180 deg rotation - cart. axis [0,1,0]   

 cryst.   s(27) = (     0          1         -1      )
                  (     0          1          0      )
                  (    -1          1          0      )

 cart.    s(27) = (  1.0000000  0.0000000  0.0000000 )
                  (  0.0000000 -1.0000000  0.0000000 )
                  (  0.0000000  0.0000000  1.0000000 )


      isym = 28     inv. 180 deg rotation - cart. axis [1,0,0]   

 cryst.   s(28) = (     0         -1          1      )
                  (    -1          0          1      )
                  (     0          0          1      )

 cart.    s(28) = ( -1.0000000  0.0000000  0.0000000 )
                  (  0.0000000  1.0000000  0.0000000 )
                  (  0.0000000  0.0000000  1.0000000 )


      isym = 29     inv. 180 deg rotation - cart. axis [1,1,0]   

 cryst.   s(29) = (    -1          0          0      )
                  (    -1          1          0      )
                  (    -1          0          1      )

 cart.    s(29) = (  0.0000000 -1.0000000  0.0000000 )
                  ( -1.0000000  0.0000000  0.0000000 )
                  (  0.0000000  0.0000000  1.0000000 )


      isym = 30     inv. 180 deg rotation - cart. axis [1,-1,0]  

 cryst.   s(30) = (     1          0          0      )
                  (     0          0          1      )
                  (     0          1          0      )

 cart.    s(30) = (  0.0000000  1.0000000  0.0000000 )
                  (  1.0000000  0.0000000  0.0000000 )
                  (  0.0000000  0.0000000  1.0000000 )


      isym = 31     inv.  90 deg rotation - cart. axis [0,0,-1]  

 cryst.   s(31) = (     0         -1          1      )
                  (     1         -1          0      )
                  (     0         -1          0      )

 cart.    s(31) = (  0.0000000 -1.0000000  0.0000000 )
                  (  1.0000000  0.0000000  0.0000000 )
                  (  0.0000000  0.0000000 -1.0000000 )


      isym = 32     inv.  90 deg rotation - cart. axis [0,0,1]   

 cryst.   s(32) = (     0          1         -1      )
                  (     0          0         -1      )
                  (     1          0         -1      )

 cart.    s(32) = (  0.0000000  1.0000000  0.0000000 )
                  ( -1.0000000  0.0000000  0.0000000 )
                  (  0.0000000  0.0000000 -1.0000000 )


      isym = 33     inv. 180 deg rotation - cart. axis [1,0,1]   

 cryst.   s(33) = (     1         -1          0      )
                  (     0         -1          0      )
                  (     0         -1          1      )

 cart.    s(33) = (  0.0000000  0.0000000 -1.0000000 )
                  (  0.0000000  1.0000000  0.0000000 )
                  ( -1.0000000  0.0000000  0.0000000 )


      isym = 34     inv. 180 deg rotation - cart. axis [-1,0,1]  

 cryst.   s(34) = (     0          0          1      )
                  (     0          1          0      )
                  (     1          0          0      )

 cart.    s(34) = (  0.0000000  0.0000000  1.0000000 )
                  (  0.0000000  1.0000000  0.0000000 )
                  (  1.0000000  0.0000000  0.0000000 )


      isym = 35     inv.  90 deg rotation - cart. axis [0,1,0]   

 cryst.   s(35) = (    -1          1          0      )
                  (    -1          0          1      )
                  (    -1          0          0      )

 cart.    s(35) = (  0.0000000  0.0000000 -1.0000000 )
                  (  0.0000000 -1.0000000  0.0000000 )
                  (  1.0000000  0.0000000  0.0000000 )


      isym = 36     inv.  90 deg rotation - cart. axis [0,-1,0]  

 cryst.   s(36) = (     0          0         -1      )
                  (     1          0         -1      )
                  (     0          1         -1      )

 cart.    s(36) = (  0.0000000  0.0000000  1.0000000 )
                  (  0.0000000 -1.0000000  0.0000000 )
                  ( -1.0000000  0.0000000  0.0000000 )


      isym = 37     inv. 180 deg rotation - cart. axis [0,1,1]   

 cryst.   s(37) = (     1          0         -1      )
                  (     0          1         -1      )
                  (     0          0         -1      )

 cart.    s(37) = (  1.0000000  0.0000000  0.0000000 )
                  (  0.0000000  0.0000000 -1.0000000 )
                  (  0.0000000 -1.0000000  0.0000000 )


      isym = 38     inv. 180 deg rotation - cart. axis [0,1,-1]  

 cryst.   s(38) = (     0          1          0      )
                  (     1          0          0      )
                  (     0          0          1      )

 cart.    s(38) = (  1.0000000  0.0000000  0.0000000 )
                  (  0.0000000  0.0000000  1.0000000 )
                  (  0.0000000  1.0000000  0.0000000 )


      isym = 39     inv.  90 deg rotation - cart. axis [-1,0,0]  

 cryst.   s(39) = (    -1          0          1      )
                  (    -1          0          0      )
                  (    -1          1          0      )

 cart.    s(39) = ( -1.0000000  0.0000000  0.0000000 )
                  (  0.0000000  0.0000000 -1.0000000 )
                  (  0.0000000  1.0000000  0.0000000 )


      isym = 40     inv.  90 deg rotation - cart. axis [1,0,0]   

 cryst.   s(40) = (     0         -1          0      )
                  (     0         -1          1      )
                  (     1         -1          0      )

 cart.    s(40) = ( -1.0000000  0.0000000  0.0000000 )
                  (  0.0000000  0.0000000  1.0000000 )
                  (  0.0000000 -1.0000000  0.0000000 )


      isym = 41     inv. 120 deg rotation - cart. axis [-1,-1,-1]

 cryst.   s(41) = (     0         -1          0      )
                  (     0          0         -1      )
                  (    -1          0          0      )

 cart.    s(41) = (  0.0000000 -1.0000000  0.0000000 )
                  (  0.0000000  0.0000000 -1.0000000 )
                  ( -1.0000000  0.0000000  0.0000000 )


      isym = 42     inv. 120 deg rotation - cart. axis [-1,1,1]  

 cryst.   s(42) = (     0          1          0      )
                  (    -1          1          0      )
                  (     0          1         -1      )

 cart.    s(42) = (  0.0000000  1.0000000  0.0000000 )
                  (  0.0000000  0.0000000 -1.0000000 )
                  (  1.0000000  0.0000000  0.0000000 )


      isym = 43     inv. 120 deg rotation - cart. axis [1,1,-1]  

 cryst.   s(43) = (    -1          0          1      )
                  (     0          0          1      )
                  (     0         -1          1      )

 cart.    s(43) = (  0.0000000 -1.0000000  0.0000000 )
                  (  0.0000000  0.0000000  1.0000000 )
                  (  1.0000000  0.0000000  0.0000000 )


      isym = 44     inv. 120 deg rotation - cart. axis [1,-1,1]  

 cryst.   s(44) = (     1          0         -1      )
                  (     1         -1          0      )
                  (     1          0          0      )

 cart.    s(44) = (  0.0000000  1.0000000  0.0000000 )
                  (  0.0000000  0.0000000  1.0000000 )
                  ( -1.0000000  0.0000000  0.0000000 )


      isym = 45     inv. 120 deg rotation - cart. axis [1,1,1]   

 cryst.   s(45) = (     0          0         -1      )
                  (    -1          0          0      )
                  (     0         -1          0      )

 cart.    s(45) = (  0.0000000  0.0000000 -1.0000000 )
                  ( -1.0000000  0.0000000  0.0000000 )
                  (  0.0000000 -1.0000000  0.0000000 )


      isym = 46     inv. 120 deg rotation - cart. axis [-1,1,-1] 

 cryst.   s(46) = (     0          0          1      )
                  (     0         -1          1      )
                  (    -1          0          1      )

 cart.    s(46) = (  0.0000000  0.0000000 -1.0000000 )
                  (  1.0000000  0.0000000  0.0000000 )
                  (  0.0000000  1.0000000  0.0000000 )


      isym = 47     inv. 120 deg rotation - cart. axis [1,-1,-1] 

 cryst.   s(47) = (     1         -1          0      )
                  (     1          0          0      )
                  (     1          0         -1      )

 cart.    s(47) = (  0.0000000  0.0000000  1.0000000 )
                  (  1.0000000  0.0000000  0.0000000 )
                  (  0.0000000 -1.0000000  0.0000000 )


      isym = 48     inv. 120 deg rotation - cart. axis [-1,-1,1] 

 cryst.   s(48) = (    -1          1          0      )
                  (     0          1         -1      )
                  (     0          1          0      )

 cart.    s(48) = (  0.0000000  0.0000000  1.0000000 )
                  ( -1.0000000  0.0000000  0.0000000 )
                  (  0.0000000  1.0000000  0.0000000 )


   Cartesian axes

     site n.     atom                  positions (alat units)
         1           Fe  tau(   1) = (   0.0000000   0.0000000   0.0000000  )
         2           O   tau(   2) = (   0.0000000   0.0000000   2.1584524  )

   Crystallographic axes

     site n.     atom                  positions (cryst. coord.)
         1           Fe  tau(   1) = (  0.0000000  0.0000000  0.0000000  )
         2           O   tau(   2) = ( -0.5000000  0.5000000  0.5000000  )

     number of k points=    89  gaussian smearing, width (Ry)=  0.0200
                       cart. coord. in units 2pi/alat
        k(    1) = (   0.0000000   0.0000000   0.0000000), wk =   0.0224719
        k(    2) = (   0.0154432   0.0000000   0.0000000), wk =   0.0224719
        k(    3) = (   0.0308863   0.0000000   0.0000000), wk =   0.0224719
        k(    4) = (   0.0463295   0.0000000   0.0000000), wk =   0.0224719
        k(    5) = (   0.0617727   0.0000000   0.0000000), wk =   0.0224719
        k(    6) = (   0.0772158   0.0000000   0.0000000), wk =   0.0224719
        k(    7) = (   0.0926590   0.0000000   0.0000000), wk =   0.0224719
        k(    8) = (   0.1081021   0.0000000   0.0000000), wk =   0.0224719
        k(    9) = (   0.1235453   0.0000000   0.0000000), wk =   0.0224719
        k(   10) = (   0.1389885   0.0000000   0.0000000), wk =   0.0224719
        k(   11) = (   0.1544316   0.0000000   0.0000000), wk =   0.0224719
        k(   12) = (   0.1698748   0.0000000   0.0000000), wk =   0.0224719
        k(   13) = (   0.1853180   0.0000000   0.0000000), wk =   0.0224719
        k(   14) = (   0.2007611   0.0000000   0.0000000), wk =   0.0224719
        k(   15) = (   0.2162043   0.0000000   0.0000000), wk =   0.0224719
        k(   16) = (   0.2316475   0.0000000   0.0000000), wk =   0.0224719
        k(   17) = (   0.2316475   0.0000000   0.0165462), wk =   0.0224719
        k(   18) = (   0.2316475   0.0000000   0.0330925), wk =   0.0224719
        k(   19) = (   0.2316475   0.0000000   0.0496387), wk =   0.0224719
        k(   20) = (   0.2316475   0.0000000   0.0661850), wk =   0.0224719
        k(   21) = (   0.2316475   0.0000000   0.0827312), wk =   0.0224719
        k(   22) = (   0.2316475  -0.0000000   0.0992775), wk =   0.0224719
        k(   23) = (   0.2316475  -0.0000000   0.1158237), wk =   0.0224719
        k(   24) = (   0.2200651   0.0000000   0.1274061), wk =   0.0224719
        k(   25) = (   0.2084827   0.0000000   0.1389885), wk =   0.0224719
        k(   26) = (   0.1969003   0.0000000   0.1505708), wk =   0.0224719
        k(   27) = (   0.1853180   0.0000000   0.1621532), wk =   0.0224719
        k(   28) = (   0.1737356   0.0000000   0.1737356), wk =   0.0224719
        k(   29) = (   0.1621532   0.0000000   0.1621532), wk =   0.0224719
        k(   30) = (   0.1505708   0.0000000   0.1505708), wk =   0.0224719
        k(   31) = (   0.1389885   0.0000000   0.1389885), wk =   0.0224719
        k(   32) = (   0.1274061   0.0000000   0.1274061), wk =   0.0224719
        k(   33) = (   0.1158237   0.0000000   0.1158237), wk =   0.0224719
        k(   34) = (   0.1042414   0.0000000   0.1042414), wk =   0.0224719
        k(   35) = (   0.0926590   0.0000000   0.0926590), wk =   0.0224719
        k(   36) = (   0.0810766   0.0000000   0.0810766), wk =   0.0224719
        k(   37) = (   0.0694942   0.0000000   0.0694942), wk =   0.0224719
        k(   38) = (   0.0579119   0.0000000   0.0579119), wk =   0.0224719
        k(   39) = (   0.0463295   0.0000000   0.0463295), wk =   0.0224719
        k(   40) = (   0.0347471   0.0000000   0.0347471), wk =   0.0224719
        k(   41) = (   0.0231647   0.0000000   0.0231647), wk =   0.0224719
        k(   42) = (   0.0115824   0.0000000   0.0115824), wk =   0.0224719
        k(   43) = (   0.0000000   0.0000000   0.0000000), wk =   0.0224719
        k(   44) = (   0.0089095   0.0089095   0.0089095), wk =   0.0224719
        k(   45) = (   0.0178190   0.0178190   0.0178190), wk =   0.0224719
        k(   46) = (   0.0267286   0.0267286   0.0267286), wk =   0.0224719
        k(   47) = (   0.0356381   0.0356381   0.0356381), wk =   0.0224719
        k(   48) = (   0.0445476   0.0445476   0.0445476), wk =   0.0224719
        k(   49) = (   0.0534571   0.0534571   0.0534571), wk =   0.0224719
        k(   50) = (   0.0623666   0.0623666   0.0623666), wk =   0.0224719
        k(   51) = (   0.0712761   0.0712761   0.0712761), wk =   0.0224719
        k(   52) = (   0.0801857   0.0801857   0.0801857), wk =   0.0224719
        k(   53) = (   0.0890952   0.0890952   0.0890952), wk =   0.0224719
        k(   54) = (   0.0980047   0.0980047   0.0980047), wk =   0.0224719
        k(   55) = (   0.1069142   0.1069142   0.1069142), wk =   0.0224719
        k(   56) = (   0.1158237   0.1158237   0.1158237), wk =   0.0224719
        k(   57) = (   0.1286930   0.1093891   0.1093891), wk =   0.0224719
        k(   58) = (   0.1415623   0.1029544   0.1029544), wk =   0.0224719
        k(   59) = (   0.1544316   0.0965198   0.0965198), wk =   0.0224719
        k(   60) = (   0.1673009   0.0900851   0.0900851), wk =   0.0224719
        k(   61) = (   0.1801702   0.0836505   0.0836505), wk =   0.0224719
        k(   62) = (   0.1930395   0.0772158   0.0772158), wk =   0.0224719
        k(   63) = (   0.2059088   0.0707812   0.0707812), wk =   0.0224719
        k(   64) = (   0.2187782   0.0643465   0.0643465), wk =   0.0224719
        k(   65) = (   0.2316475   0.0579119   0.0579119), wk =   0.0224719
        k(   66) = (   0.2316475   0.0463295   0.0694942), wk =   0.0224719
        k(   67) = (   0.2316475   0.0347471   0.0810766), wk =   0.0224719
        k(   68) = (   0.2316475   0.0231647   0.0926590), wk =   0.0224719
        k(   69) = (   0.2316475   0.0115824   0.1042414), wk =   0.0224719
        k(   70) = (   0.2316475  -0.0000000   0.1158237), wk =   0.0224719
        k(   71) = (   0.2200651   0.0115824   0.1158237), wk =   0.0224719
        k(   72) = (   0.2084827   0.0231647   0.1158237), wk =   0.0224719
        k(   73) = (   0.1969003   0.0347471   0.1158237), wk =   0.0224719
        k(   74) = (   0.1853180   0.0463295   0.1158237), wk =   0.0224719
        k(   75) = (   0.1737356   0.0579119   0.1158237), wk =   0.0224719
        k(   76) = (   0.1621532   0.0694942   0.1158237), wk =   0.0224719
        k(   77) = (   0.1505708   0.0810766   0.1158237), wk =   0.0224719
        k(   78) = (   0.1389885   0.0926590   0.1158237), wk =   0.0224719
        k(   79) = (   0.1274061   0.1042414   0.1158237), wk =   0.0224719
        k(   80) = (   0.1158237   0.1158237   0.1158237), wk =   0.0224719
        k(   81) = (   0.1222584   0.1029544   0.1222584), wk =   0.0224719
        k(   82) = (   0.1286930   0.0900851   0.1286930), wk =   0.0224719
        k(   83) = (   0.1351277   0.0772158   0.1351277), wk =   0.0224719
        k(   84) = (   0.1415623   0.0643465   0.1415623), wk =   0.0224719
        k(   85) = (   0.1479970   0.0514772   0.1479970), wk =   0.0224719
        k(   86) = (   0.1544316   0.0386079   0.1544316), wk =   0.0224719
        k(   87) = (   0.1608663   0.0257386   0.1608663), wk =   0.0224719
        k(   88) = (   0.1673009   0.0128693   0.1673009), wk =   0.0224719
        k(   89) = (   0.1737356   0.0000000   0.1737356), wk =   0.0224719

                       cryst. coord.
        k(    1) = (   0.0000000   0.0000000   0.0000000), wk =   0.0224719
        k(    2) = (   0.0333333   0.0333333   0.0000000), wk =   0.0224719
        k(    3) = (   0.0666667   0.0666667   0.0000000), wk =   0.0224719
        k(    4) = (   0.1000000   0.1000000   0.0000000), wk =   0.0224719
        k(    5) = (   0.1333333   0.1333333   0.0000000), wk =   0.0224719
        k(    6) = (   0.1666667   0.1666667   0.0000000), wk =   0.0224719
        k(    7) = (   0.2000000   0.2000000   0.0000000), wk =   0.0224719
        k(    8) = (   0.2333333   0.2333333   0.0000000), wk =   0.0224719
        k(    9) = (   0.2666667   0.2666667   0.0000000), wk =   0.0224719
        k(   10) = (   0.3000000   0.3000000   0.0000000), wk =   0.0224719
        k(   11) = (   0.3333333   0.3333333   0.0000000), wk =   0.0224719
        k(   12) = (   0.3666667   0.3666667   0.0000000), wk =   0.0224719
        k(   13) = (   0.4000000   0.4000000   0.0000000), wk =   0.0224719
        k(   14) = (   0.4333333   0.4333333   0.0000000), wk =   0.0224719
        k(   15) = (   0.4666667   0.4666667   0.0000000), wk =   0.0224719
        k(   16) = (   0.5000000   0.5000000   0.0000000), wk =   0.0224719
        k(   17) = (   0.5000000   0.5357143   0.0357143), wk =   0.0224719
        k(   18) = (   0.5000000   0.5714286   0.0714286), wk =   0.0224719
        k(   19) = (   0.5000000   0.6071429   0.1071429), wk =   0.0224719
        k(   20) = (   0.5000000   0.6428571   0.1428571), wk =   0.0224719
        k(   21) = (   0.5000000   0.6785714   0.1785714), wk =   0.0224719
        k(   22) = (   0.5000000   0.7142857   0.2142857), wk =   0.0224719
        k(   23) = (   0.5000000   0.7500000   0.2500000), wk =   0.0224719
        k(   24) = (   0.4750000   0.7500000   0.2750000), wk =   0.0224719
        k(   25) = (   0.4500000   0.7500000   0.3000000), wk =   0.0224719
        k(   26) = (   0.4250000   0.7500000   0.3250000), wk =   0.0224719
        k(   27) = (   0.4000000   0.7500000   0.3500000), wk =   0.0224719
        k(   28) = (   0.3750000   0.7500000   0.3750000), wk =   0.0224719
        k(   29) = (   0.3500000   0.7000000   0.3500000), wk =   0.0224719
        k(   30) = (   0.3250000   0.6500000   0.3250000), wk =   0.0224719
        k(   31) = (   0.3000000   0.6000000   0.3000000), wk =   0.0224719
        k(   32) = (   0.2750000   0.5500000   0.2750000), wk =   0.0224719
        k(   33) = (   0.2500000   0.5000000   0.2500000), wk =   0.0224719
        k(   34) = (   0.2250000   0.4500000   0.2250000), wk =   0.0224719
        k(   35) = (   0.2000000   0.4000000   0.2000000), wk =   0.0224719
        k(   36) = (   0.1750000   0.3500000   0.1750000), wk =   0.0224719
        k(   37) = (   0.1500000   0.3000000   0.1500000), wk =   0.0224719
        k(   38) = (   0.1250000   0.2500000   0.1250000), wk =   0.0224719
        k(   39) = (   0.1000000   0.2000000   0.1000000), wk =   0.0224719
        k(   40) = (   0.0750000   0.1500000   0.0750000), wk =   0.0224719
        k(   41) = (   0.0500000   0.1000000   0.0500000), wk =   0.0224719
        k(   42) = (   0.0250000   0.0500000   0.0250000), wk =   0.0224719
        k(   43) = (   0.0000000   0.0000000   0.0000000), wk =   0.0224719
        k(   44) = (   0.0384615   0.0384615   0.0384615), wk =   0.0224719
        k(   45) = (   0.0769231   0.0769231   0.0769231), wk =   0.0224719
        k(   46) = (   0.1153846   0.1153846   0.1153846), wk =   0.0224719
        k(   47) = (   0.1538462   0.1538462   0.1538462), wk =   0.0224719
        k(   48) = (   0.1923077   0.1923077   0.1923077), wk =   0.0224719
        k(   49) = (   0.2307692   0.2307692   0.2307692), wk =   0.0224719
        k(   50) = (   0.2692308   0.2692308   0.2692308), wk =   0.0224719
        k(   51) = (   0.3076923   0.3076923   0.3076923), wk =   0.0224719
        k(   52) = (   0.3461538   0.3461538   0.3461538), wk =   0.0224719
        k(   53) = (   0.3846154   0.3846154   0.3846154), wk =   0.0224719
        k(   54) = (   0.4230769   0.4230769   0.4230769), wk =   0.0224719
        k(   55) = (   0.4615385   0.4615385   0.4615385), wk =   0.0224719
        k(   56) = (   0.5000000   0.5000000   0.5000000), wk =   0.0224719
        k(   57) = (   0.5138889   0.5138889   0.4722222), wk =   0.0224719
        k(   58) = (   0.5277778   0.5277778   0.4444444), wk =   0.0224719
        k(   59) = (   0.5416667   0.5416667   0.4166667), wk =   0.0224719
        k(   60) = (   0.5555556   0.5555556   0.3888889), wk =   0.0224719
        k(   61) = (   0.5694444   0.5694444   0.3611111), wk =   0.0224719
        k(   62) = (   0.5833333   0.5833333   0.3333333), wk =   0.0224719
        k(   63) = (   0.5972222   0.5972222   0.3055556), wk =   0.0224719
        k(   64) = (   0.6111111   0.6111111   0.2777778), wk =   0.0224719
        k(   65) = (   0.6250000   0.6250000   0.2500000), wk =   0.0224719
        k(   66) = (   0.6000000   0.6500000   0.2500000), wk =   0.0224719
        k(   67) = (   0.5750000   0.6750000   0.2500000), wk =   0.0224719
        k(   68) = (   0.5500000   0.7000000   0.2500000), wk =   0.0224719
        k(   69) = (   0.5250000   0.7250000   0.2500000), wk =   0.0224719
        k(   70) = (   0.5000000   0.7500000   0.2500000), wk =   0.0224719
        k(   71) = (   0.5000000   0.7250000   0.2750000), wk =   0.0224719
        k(   72) = (   0.5000000   0.7000000   0.3000000), wk =   0.0224719
        k(   73) = (   0.5000000   0.6750000   0.3250000), wk =   0.0224719
        k(   74) = (   0.5000000   0.6500000   0.3500000), wk =   0.0224719
        k(   75) = (   0.5000000   0.6250000   0.3750000), wk =   0.0224719
        k(   76) = (   0.5000000   0.6000000   0.4000000), wk =   0.0224719
        k(   77) = (   0.5000000   0.5750000   0.4250000), wk =   0.0224719
        k(   78) = (   0.5000000   0.5500000   0.4500000), wk =   0.0224719
        k(   79) = (   0.5000000   0.5250000   0.4750000), wk =   0.0224719
        k(   80) = (   0.5000000   0.5000000   0.5000000), wk =   0.0224719
        k(   81) = (   0.4861111   0.5277778   0.4861111), wk =   0.0224719
        k(   82) = (   0.4722222   0.5555556   0.4722222), wk =   0.0224719
        k(   83) = (   0.4583333   0.5833333   0.4583333), wk =   0.0224719
        k(   84) = (   0.4444444   0.6111111   0.4444444), wk =   0.0224719
        k(   85) = (   0.4305556   0.6388889   0.4305556), wk =   0.0224719
        k(   86) = (   0.4166667   0.6666667   0.4166667), wk =   0.0224719
        k(   87) = (   0.4027778   0.6944444   0.4027778), wk =   0.0224719
        k(   88) = (   0.3888889   0.7222222   0.3888889), wk =   0.0224719
        k(   89) = (   0.3750000   0.7500000   0.3750000), wk =   0.0224719

     Dense  grid:     2975 G-vectors     FFT dimensions: (  24,  24,  24)

     Estimated max dynamical RAM per process >       0.39MB

     Estimated total allocated dynamical RAM >       3.16MB

     Check: negative/imaginary core charge=   -0.007909    0.000000

     The potential is recalculated from file :
     ./outdir/pwscf.save/charge-density.dat


     negative rho (up, down):  1.067E-04 0.000E+00
     Starting wfc are   17 randomized atomic wfcs
     Checking if some PAW data can be deallocated... 
       node    0, deallocated PAW data for type:  2
       node    1, deallocated PAW data for type:  2
       node    2, deallocated PAW data for type:  2
       node    3, deallocated PAW data for type:  2
       node    4, deallocated PAW data for type:  1
       node    5, deallocated PAW data for type:  1
       node    6, deallocated PAW data for type:  1
       node    7, deallocated PAW data for type:  1

     Band Structure Calculation
     Davidson diagonalization with overlap

     Computing kpt #:     1
     total cpu time spent up to now is        1.0 secs

     Computing kpt #:     2
     total cpu time spent up to now is        1.0 secs

     Computing kpt #:     3
     total cpu time spent up to now is        1.1 secs

     Computing kpt #:     4
     total cpu time spent up to now is        1.1 secs

     Computing kpt #:     5
     total cpu time spent up to now is        1.1 secs

     Computing kpt #:     6
     total cpu time spent up to now is        1.2 secs

     Computing kpt #:     7
     total cpu time spent up to now is        1.2 secs

     Computing kpt #:     8
     total cpu time spent up to now is        1.2 secs

     Computing kpt #:     9
     total cpu time spent up to now is        1.2 secs

     Computing kpt #:    10
     total cpu time spent up to now is        1.3 secs

     Computing kpt #:    11
     total cpu time spent up to now is        1.3 secs

     Computing kpt #:    12
     total cpu time spent up to now is        1.3 secs

     Computing kpt #:    13
     total cpu time spent up to now is        1.3 secs

     Computing kpt #:    14
     total cpu time spent up to now is        1.4 secs

     Computing kpt #:    15
     total cpu time spent up to now is        1.4 secs

     Computing kpt #:    16
     total cpu time spent up to now is        1.4 secs

     Computing kpt #:    17
     total cpu time spent up to now is        1.4 secs

     Computing kpt #:    18
     total cpu time spent up to now is        1.4 secs

     Computing kpt #:    19
     total cpu time spent up to now is        1.5 secs

     Computing kpt #:    20
     total cpu time spent up to now is        1.5 secs

     Computing kpt #:    21
     total cpu time spent up to now is        1.5 secs

     Computing kpt #:    22
     total cpu time spent up to now is        1.5 secs

     Computing kpt #:    23
     total cpu time spent up to now is        1.6 secs

     Computing kpt #:    24
     total cpu time spent up to now is        1.6 secs

     Computing kpt #:    25
     total cpu time spent up to now is        1.6 secs

     Computing kpt #:    26
     total cpu time spent up to now is        1.7 secs

     Computing kpt #:    27
     total cpu time spent up to now is        1.7 secs

     Computing kpt #:    28
     total cpu time spent up to now is        1.7 secs

     Computing kpt #:    29
     total cpu time spent up to now is        1.7 secs

     Computing kpt #:    30
     total cpu time spent up to now is        1.8 secs

     Computing kpt #:    31
     total cpu time spent up to now is        1.8 secs

     Computing kpt #:    32
     total cpu time spent up to now is        1.8 secs

     Computing kpt #:    33
     total cpu time spent up to now is        1.9 secs

     Computing kpt #:    34
     total cpu time spent up to now is        1.9 secs

     Computing kpt #:    35
     total cpu time spent up to now is        1.9 secs

     Computing kpt #:    36
     total cpu time spent up to now is        1.9 secs

     Computing kpt #:    37
     total cpu time spent up to now is        2.0 secs

     Computing kpt #:    38
     total cpu time spent up to now is        2.0 secs

     Computing kpt #:    39
     total cpu time spent up to now is        2.0 secs

     Computing kpt #:    40
     total cpu time spent up to now is        2.1 secs

     Computing kpt #:    41
     total cpu time spent up to now is        2.1 secs

     Computing kpt #:    42
     total cpu time spent up to now is        2.1 secs

     Computing kpt #:    43
     total cpu time spent up to now is        2.1 secs

     Computing kpt #:    44
     total cpu time spent up to now is        2.2 secs

     Computing kpt #:    45
     total cpu time spent up to now is        2.2 secs

     Computing kpt #:    46
     total cpu time spent up to now is        2.2 secs

     Computing kpt #:    47
     total cpu time spent up to now is        2.3 secs

     Computing kpt #:    48
     total cpu time spent up to now is        2.3 secs

     Computing kpt #:    49
     total cpu time spent up to now is        2.3 secs

     Computing kpt #:    50
     total cpu time spent up to now is        2.3 secs

     Computing kpt #:    51
     total cpu time spent up to now is        2.4 secs

     Computing kpt #:    52
     total cpu time spent up to now is        2.4 secs

     Computing kpt #:    53
     total cpu time spent up to now is        2.4 secs

     Computing kpt #:    54
     total cpu time spent up to now is        2.4 secs

     Computing kpt #:    55
     total cpu time spent up to now is        2.4 secs

     Computing kpt #:    56
     total cpu time spent up to now is        2.5 secs

     Computing kpt #:    57
     total cpu time spent up to now is        2.5 secs

     Computing kpt #:    58
     total cpu time spent up to now is        2.5 secs

     Computing kpt #:    59
     total cpu time spent up to now is        2.5 secs

     Computing kpt #:    60
     total cpu time spent up to now is        2.6 secs

     Computing kpt #:    61
     total cpu time spent up to now is        2.6 secs

     Computing kpt #:    62
     total cpu time spent up to now is        2.6 secs

     Computing kpt #:    63
     total cpu time spent up to now is        2.6 secs

     Computing kpt #:    64
     total cpu time spent up to now is        2.7 secs

     Computing kpt #:    65
     total cpu time spent up to now is        2.7 secs

     Computing kpt #:    66
     total cpu time spent up to now is        2.7 secs

     Computing kpt #:    67
     total cpu time spent up to now is        2.7 secs

     Computing kpt #:    68
     total cpu time spent up to now is        2.8 secs

     Computing kpt #:    69
     total cpu time spent up to now is        2.8 secs

     Computing kpt #:    70
     total cpu time spent up to now is        2.8 secs

     Computing kpt #:    71
     total cpu time spent up to now is        2.9 secs

     Computing kpt #:    72
     total cpu time spent up to now is        2.9 secs

     Computing kpt #:    73
     total cpu time spent up to now is        2.9 secs

     Computing kpt #:    74
     total cpu time spent up to now is        2.9 secs

     Computing kpt #:    75
     total cpu time spent up to now is        3.0 secs

     Computing kpt #:    76
     total cpu time spent up to now is        3.0 secs

     Computing kpt #:    77
     total cpu time spent up to now is        3.0 secs

     Computing kpt #:    78
     total cpu time spent up to now is        3.0 secs

     Computing kpt #:    79
     total cpu time spent up to now is        3.0 secs

     Computing kpt #:    80
     total cpu time spent up to now is        3.1 secs

     Computing kpt #:    81
     total cpu time spent up to now is        3.1 secs

     Computing kpt #:    82
     total cpu time spent up to now is        3.1 secs

     Computing kpt #:    83
     total cpu time spent up to now is        3.1 secs

     Computing kpt #:    84
     total cpu time spent up to now is        3.2 secs

     Computing kpt #:    85
     total cpu time spent up to now is        3.2 secs

     Computing kpt #:    86
     total cpu time spent up to now is        3.2 secs

     Computing kpt #:    87
     total cpu time spent up to now is        3.2 secs

     Computing kpt #:    88
     total cpu time spent up to now is        3.3 secs

     Computing kpt #:    89
     total cpu time spent up to now is        3.3 secs

     ethr =  4.55E-08,  avg # of iterations =  9.2

     total cpu time spent up to now is        3.3 secs

     End of band structure calculation

          k = 0.0000 0.0000 0.0000 (   339 PWs)   bands (ev):

   -73.2864 -39.0357 -39.0357 -39.0357  -6.8360   9.9588   9.9588   9.9588
    11.8340  11.8340  11.8340  12.2421  12.2421  14.7519  29.5430

          k = 0.0154 0.0000 0.0000 (   351 PWs)   bands (ev):

   -73.2948 -39.0943 -39.0509 -39.0509  -6.8253   9.7553   9.9180   9.9180
    11.8212  11.8755  11.8755  12.2468  12.3564  14.8333  29.2617

          k = 0.0309 0.0000 0.0000 (   355 PWs)   bands (ev):

   -73.2978 -39.1218 -39.0563 -39.0563  -6.7811   9.3072   9.8215   9.8215
    11.7833  11.9881  11.9881  12.2610  12.5889  15.1346  28.7227

          k = 0.0463 0.0000 0.0000 (   359 PWs)   bands (ev):

   -73.3007 -39.1388 -39.0672 -39.0672  -6.7111   8.7903   9.6805   9.6805
    11.7224  12.1455  12.1455  12.2840  12.8126  15.6130  28.1663

          k = 0.0618 0.0000 0.0000 (   371 PWs)   bands (ev):

   -73.3097 -39.1457 -39.1153 -39.1153  -6.6235   8.2875   9.5328   9.5328
    11.6415  12.3146  12.3206  12.3206  12.9944  16.1952  27.6510

          k = 0.0772 0.0000 0.0000 (   367 PWs)   bands (ev):

   -73.3060 -39.1366 -39.1073 -39.1073  -6.5150   7.8291   9.4219   9.4219
    11.5448  12.3521  12.5012  12.5012  13.1375  16.8869  27.1929

          k = 0.0927 0.0000 0.0000 (   367 PWs)   bands (ev):

   -73.3050 -39.1393 -39.1097 -39.1097  -6.3983   7.4327   9.3079   9.3079
    11.4367  12.3945  12.6658  12.6658  13.2505  17.5501  26.7915

          k = 0.1081 0.0000 0.0000 (   367 PWs)   bands (ev):

   -73.3036 -39.1401 -39.1111 -39.1111  -6.2797   7.1177   9.2122   9.2122
    11.3224  12.4402  12.8064  12.8064  13.3368  18.1827  26.4462

          k = 0.1235 0.0000 0.0000 (   371 PWs)   bands (ev):

   -73.3040 -39.1551 -39.1237 -39.1237  -6.1645   6.8720   9.1150   9.1150
    11.2072  12.4870  12.9149  12.9149  13.3886  18.8256  26.1526

          k = 0.1390 0.0000 0.0000 (   371 PWs)   bands (ev):

   -73.3029 -39.1592 -39.1252 -39.1252  -6.0618   6.7391   9.0563   9.0563
    11.0959  12.5332  12.9942  12.9942  13.4153  19.3228  25.9088

          k = 0.1544 0.0000 0.0000 (   379 PWs)   bands (ev):

   -73.3079 -39.2233 -39.1333 -39.1333  -5.9738   6.6291   9.0143   9.0143
    10.9932  12.5765  13.0442  13.0442  13.4015  19.6702  25.6734

          k = 0.1699 0.0000 0.0000 (   375 PWs)   bands (ev):

   -73.3037 -39.2043 -39.1275 -39.1275  -5.8996   6.6787   8.9906   8.9906
    10.9033  12.6150  13.0709  13.0709  13.3588  19.9850  24.9179

          k = 0.1853 0.0000 0.0000 (   383 PWs)   bands (ev):

   -73.3098 -39.2280 -39.1561 -39.1561  -5.8473   6.7269   8.9205   8.9205
    10.8296  12.6469  13.0782  13.0782  13.2833  20.2064  24.2373

          k = 0.2008 0.0000 0.0000 (   379 PWs)   bands (ev):

   -73.3061 -39.1973 -39.1555 -39.1555  -5.8107   6.7968   8.9139   8.9139
    10.7751  12.6709  13.0785  13.0785  13.2021  20.3908  23.9105

          k = 0.2162 0.0000 0.0000 (   388 PWs)   bands (ev):

   -73.3132 -39.2364 -39.1816 -39.1816  -5.7905   6.8104   8.9069   8.9069
    10.7415  12.6857  13.0757  13.0757  13.1379  20.4140  23.6465

          k = 0.2316 0.0000 0.0000 (   388 PWs)   bands (ev):

   -73.3132 -39.2383 -39.1823 -39.1823  -5.7838   6.8304   8.9057   8.9057
    10.7302  12.6907  13.0743  13.0743  13.1139  20.4373  23.5728

          k = 0.2316 0.0000 0.0165 (   380 PWs)   bands (ev):

   -73.3066 -39.2251 -39.1650 -39.1362  -5.7762   6.8676   8.8271   8.8318
    10.8188  12.7502  13.0676  13.0744  13.1321  20.5368  23.5736

          k = 0.2316 0.0000 0.0331 (   372 PWs)   bands (ev):

   -73.3008 -39.2051 -39.1459 -39.1086  -5.7579   6.9243   8.6480   8.6485
    11.0463  12.8737  13.0459  13.0745  13.2123  20.7944  23.5981

          k = 0.2316 0.0000 0.0496 (   376 PWs)   bands (ev):

   -73.3042 -39.2048 -39.1589 -39.1300  -5.7329   6.9799   8.3088   8.3840
    11.3409  12.9529  13.0039  13.0747  13.3758  21.1207  23.6060

          k = 0.2316 0.0000 0.0662 (   378 PWs)   bands (ev):

   -73.3062 -39.2050 -39.1651 -39.1454  -5.7046   7.0557   8.0169   8.1319
    11.6587  12.9341  12.9881  13.0749  13.5739  21.5176  23.6330

          k = 0.2316 0.0000 0.0827 (   386 PWs)   bands (ev):

   -73.3131 -39.2046 -39.1968 -39.1933  -5.6799   7.1585   7.7615   7.8357
    11.9595  12.8284  13.0044  13.0750  13.7342  21.9129  23.6850

          k = 0.2316-0.0000 0.0993 (   382 PWs)   bands (ev):

   -73.3102 -39.1943 -39.1920 -39.1752  -5.6623   7.2957   7.6104   7.6595
    12.2467  12.6807  13.0126  13.0752  13.8400  22.2823  23.7916

          k = 0.2316-0.0000 0.1158 (   380 PWs)   bands (ev):

   -73.3087 -39.1823 -39.1823 -39.1791  -5.6558   7.4628   7.4628   7.5643
    12.4866  12.4866  13.0151  13.0752  13.8774  22.4452  23.9306

          k = 0.2201 0.0000 0.1274 (   383 PWs)   bands (ev):

   -73.3110 -39.1999 -39.1899 -39.1808  -5.6587   7.3475   7.4251   7.7092
    12.3183  12.6280  13.0399  13.0745  13.8743  22.3805  23.8283

          k = 0.2085 0.0000 0.1390 (   380 PWs)   bands (ev):

   -73.3088 -39.1954 -39.1949 -39.1534  -5.6649   7.2597   7.3544   7.9347
    12.1474  12.7458  13.0716  13.1083  13.8668  22.2550  23.7491

          k = 0.1969 0.0000 0.1506 (   380 PWs)   bands (ev):

   -73.3089 -39.1966 -39.1966 -39.1488  -5.6719   7.1952   7.2979   8.1018
    11.9934  12.8370  13.0653  13.1972  13.8474  22.1243  23.6997

          k = 0.1853 0.0000 0.1622 (   380 PWs)   bands (ev):

   -73.3085 -39.2027 -39.1946 -39.1420  -5.6770   7.1448   7.2624   8.2358
    11.8866  12.8979  13.0555  13.2755  13.8327  22.0184  23.6720

          k = 0.1737 0.0000 0.1737 (   377 PWs)   bands (ev):

   -73.3060 -39.1944 -39.1936 -39.1237  -5.6788   7.1435   7.2530   8.2938
    11.8484  12.9211  13.0508  13.3084  13.8280  22.0066  23.6715

          k = 0.1622 0.0000 0.1622 (   383 PWs)   bands (ev):

   -73.3114 -39.2177 -39.2042 -39.1450  -5.6625   6.8999   7.2348   8.1336
    12.1162  12.8555  13.0265  13.3249  14.1380  22.4116  23.2297

          k = 0.1506 0.0000 0.1506 (   383 PWs)   bands (ev):

   -73.3117 -39.2201 -39.1986 -39.1455  -5.6625   6.6176   7.3779   8.0126
    12.3559  12.7799  12.9928  13.3232  14.4116  22.2607  23.3015

          k = 0.1390 0.0000 0.1390 (   385 PWs)   bands (ev):

   -73.3134 -39.2373 -39.1917 -39.1477  -5.6856   6.4221   7.5432   7.9313
    12.5485  12.6956  12.9457  13.3061  14.6244  21.5927  23.8567

          k = 0.1274 0.0000 0.1274 (   379 PWs)   bands (ev):

   -73.3088 -39.2066 -39.1679 -39.1331  -5.7357   6.3205   7.7295   7.9089
    12.6042  12.6801  12.8842  13.2757  14.7675  20.9181  24.1958

          k = 0.1158 0.0000 0.1158 (   379 PWs)   bands (ev):

   -73.3095 -39.2033 -39.1634 -39.1329  -5.8128   6.3279   7.9220   7.9351
    12.5078  12.7420  12.8070  13.2344  14.8113  20.2361  24.4403

          k = 0.1042 0.0000 0.1042 (   373 PWs)   bands (ev):

   -73.3052 -39.1858 -39.1359 -39.1141  -5.9149   6.4569   7.9957   8.2013
    12.4087  12.7238  12.7409  13.1779  14.7678  19.5643  24.7534

          k = 0.0927 0.0000 0.0927 (   371 PWs)   bands (ev):

   -73.3047 -39.1675 -39.1357 -39.1098  -6.0450   6.6555   8.1147   8.4322
    12.3097  12.6172  12.6927  13.0846  14.6255  18.8974  25.1284

          k = 0.0811 0.0000 0.0811 (   371 PWs)   bands (ev):

   -73.3070 -39.1747 -39.1247 -39.1091  -6.1844   6.9839   8.2777   8.6870
    12.2134  12.5036  12.6101  12.9751  14.3935  18.1542  25.5735

          k = 0.0695 0.0000 0.0695 (   371 PWs)   bands (ev):

   -73.3083 -39.1718 -39.1222 -39.1085  -6.3268   7.3753   8.4872   8.9274
    12.1229  12.3798  12.5015  12.8471  14.0924  17.4938  26.0783

          k = 0.0579 0.0000 0.0579 (   367 PWs)   bands (ev):

   -73.3065 -39.1374 -39.1165 -39.1060  -6.4645   7.8705   8.7378   9.1679
    12.0407  12.2542  12.3728  12.7234  13.7395  16.8516  26.6443

          k = 0.0463 0.0000 0.0463 (   367 PWs)   bands (ev):

   -73.3073 -39.1335 -39.1126 -39.1039  -6.5901   8.3712   9.0182   9.3902
    11.9696  12.1307  12.2339  12.6007  13.3552  16.2208  27.2610

          k = 0.0347 0.0000 0.0347 (   365 PWs)   bands (ev):

   -73.3058 -39.1346 -39.0960 -39.0924  -6.6962   8.8881   9.3201   9.6185
    11.9117  12.0191  12.0977  12.4844  12.9689  15.6251  27.9219

          k = 0.0232 0.0000 0.0232 (   359 PWs)   bands (ev):

   -73.3011 -39.1167 -39.0824 -39.0670  -6.7755   9.3882   9.6201   9.8008
    11.8690  11.9243  11.9754  12.3728  12.6154  15.1530  28.6005

          k = 0.0116 0.0000 0.0116 (   353 PWs)   bands (ev):

   -73.2963 -39.0903 -39.0678 -39.0508  -6.8241   9.7858   9.8511   9.9135
    11.8429  11.8580  11.8772  12.2801  12.3467  14.8417  29.2252

          k = 0.0000 0.0000 0.0000 (   339 PWs)   bands (ev):

   -73.2864 -39.0357 -39.0357 -39.0357  -6.8360   9.9588   9.9588   9.9588
    11.8340  11.8340  11.8340  12.2421  12.2421  14.7519  29.5430

          k = 0.0089 0.0089 0.0089 (   354 PWs)   bands (ev):

   -73.2971 -39.0915 -39.0619 -39.0619  -6.8263   9.8157   9.8795   9.8795
    11.8522  11.8522  11.8646  12.3072  12.3072  14.8272  29.2534

          k = 0.0178 0.0178 0.0178 (   363 PWs)   bands (ev):

   -73.3049 -39.1318 -39.0817 -39.0817  -6.7829   9.4482   9.6902   9.6902
    11.8984  11.8984  11.9349  12.4852  12.4852  15.0996  28.6531

          k = 0.0267 0.0267 0.0267 (   362 PWs)   bands (ev):

   -73.3044 -39.1301 -39.0848 -39.0848  -6.7105   9.0263   9.4608   9.4608
    11.9639  11.9639  12.0229  12.7401  12.7401  15.5271  27.9718

          k = 0.0356 0.0356 0.0356 (   362 PWs)   bands (ev):

   -73.3040 -39.1368 -39.0871 -39.0871  -6.6143   8.5358   9.2067   9.2067
    12.0457  12.0457  12.1184  13.0347  13.0347  16.0277  27.2700

          k = 0.0445 0.0445 0.0445 (   362 PWs)   bands (ev):

   -73.3033 -39.1419 -39.0886 -39.0886  -6.4981   8.0262   8.9504   8.9504
    12.1410  12.1410  12.2230  13.3435  13.3435  16.5690  26.5699

          k = 0.0535 0.0535 0.0535 (   362 PWs)   bands (ev):

   -73.3021 -39.1451 -39.0893 -39.0892  -6.3673   7.5238   8.7059   8.7059
    12.2459  12.2459  12.3389  13.6488  13.6488  17.1201  25.8866

          k = 0.0624 0.0624 0.0624 (   368 PWs)   bands (ev):

   -73.3052 -39.1969 -39.0931 -39.0931  -6.2295   6.9802   8.4781   8.4781
    12.3551  12.3551  12.4592  13.9361  13.9361  17.6250  25.2155

          k = 0.0713 0.0713 0.0713 (   365 PWs)   bands (ev):

   -73.3017 -39.1964 -39.0834 -39.0834  -6.0900   6.5469   8.2898   8.2898
    12.4627  12.4627  12.5927  14.2057  14.2057  18.1311  24.6232

          k = 0.0802 0.0802 0.0802 (   362 PWs)   bands (ev):

   -73.2978 -39.1797 -39.0808 -39.0808  -5.9518   6.1878   8.1253   8.1253
    12.5622  12.5622  12.7324  14.4364  14.4364  18.6229  24.0663

          k = 0.0891 0.0891 0.0891 (   368 PWs)   bands (ev):

   -73.3016 -39.2051 -39.0962 -39.0962  -5.8394   5.8501   7.9796   7.9796
    12.6472  12.6472  12.8521  14.6138  14.6138  18.9534  23.6364

          k = 0.0980 0.0980 0.0980 (   374 PWs)   bands (ev):

   -73.3060 -39.2521 -39.1047 -39.1047  -5.7526   5.6199   7.8786   7.8786
    12.7124  12.7124  12.9515  14.7491  14.7491  19.1949  23.2142

          k = 0.1069 0.1069 0.1069 (   374 PWs)   bands (ev):

   -73.3057 -39.2572 -39.1044 -39.1044  -5.6966   5.4787   7.8209   7.8209
    12.7535  12.7535  13.0190  14.8349  14.8349  19.3435  23.0188

          k = 0.1158 0.1158 0.1158 (   368 PWs)   bands (ev):

   -73.3004 -39.2350 -39.0890 -39.0890  -5.6760   5.4318   7.8130   7.8130
    12.7677  12.7677  13.0436  14.8735  14.8735  19.4334  23.0043

          k = 0.1287 0.1094 0.1094 (   376 PWs)   bands (ev):

   -73.3073 -39.2510 -39.1312 -39.1029  -5.6766   5.4578   7.7799   7.8120
    12.7527  12.7686  13.0362  14.7967  14.8504  19.5173  22.9429

          k = 0.1416 0.1030 0.1030 (   378 PWs)   bands (ev):

   -73.3088 -39.2502 -39.1336 -39.1196  -5.6753   5.5421   7.7603   7.8269
    12.7092  12.7720  13.0196  14.6439  14.7965  19.8013  22.9015

          k = 0.1544 0.0965 0.0965 (   381 PWs)   bands (ev):

   -73.3109 -39.2466 -39.1570 -39.1286  -5.6728   5.6890   7.7183   7.8593
    12.6377  12.7787  12.9997  14.4224  14.7156  20.2218  22.8326

          k = 0.1673 0.0901 0.0901 (   375 PWs)   bands (ev):

   -73.3058 -39.2149 -39.1445 -39.1204  -5.6683   5.8865   7.6813   7.9139
    12.5428  12.7897  12.9854  14.1803  14.6145  20.7824  22.8095

          k = 0.1802 0.0837 0.0837 (   376 PWs)   bands (ev):

   -73.3062 -39.2137 -39.1538 -39.1241  -5.6663   6.1147   7.6032   7.9745
    12.4275  12.8058  12.9779  13.9239  14.4871  21.3597  22.7227

          k = 0.1930 0.0772 0.0772 (   380 PWs)   bands (ev):

   -73.3090 -39.2161 -39.1714 -39.1426  -5.6651   6.3707   7.5119   8.0350
    12.2962  12.8277  12.9839  13.6905  14.3354  21.9338  22.6278

          k = 0.2059 0.0708 0.0708 (   383 PWs)   bands (ev):

   -73.3111 -39.2119 -39.2053 -39.1452  -5.6659   6.6497   7.3881   8.1124
    12.1529  12.8552  13.0034  13.4950  14.1746  22.2789  22.7413

          k = 0.2188 0.0643 0.0643 (   378 PWs)   bands (ev):

   -73.3069 -39.2006 -39.1964 -39.1230  -5.6696   6.9414   7.2847   8.2039
    12.0025  12.8873  13.0316  13.3639  14.0060  22.2226  23.2389

          k = 0.2316 0.0579 0.0579 (   377 PWs)   bands (ev):

   -73.3060 -39.1944 -39.1936 -39.1237  -5.6788   7.1435   7.2530   8.2938
    11.8484  12.9211  13.0508  13.3084  13.8280  22.0066  23.6715

          k = 0.2316 0.0463 0.0695 (   380 PWs)   bands (ev):

   -73.3085 -39.2027 -39.1946 -39.1420  -5.6770   7.1448   7.2624   8.2358
    11.8866  12.8979  13.0555  13.2755  13.8327  22.0184  23.6720

          k = 0.2316 0.0347 0.0811 (   380 PWs)   bands (ev):

   -73.3089 -39.1966 -39.1966 -39.1488  -5.6719   7.1952   7.2979   8.1018
    11.9934  12.8370  13.0653  13.1972  13.8474  22.1243  23.6997

          k = 0.2316 0.0232 0.0927 (   380 PWs)   bands (ev):

   -73.3088 -39.1954 -39.1949 -39.1534  -5.6649   7.2597   7.3544   7.9347
    12.1474  12.7458  13.0716  13.1083  13.8668  22.2550  23.7491

          k = 0.2316 0.0116 0.1042 (   383 PWs)   bands (ev):

   -73.3110 -39.1999 -39.1899 -39.1808  -5.6587   7.3475   7.4251   7.7092
    12.3183  12.6280  13.0399  13.0745  13.8743  22.3805  23.8283

          k = 0.2316-0.0000 0.1158 (   380 PWs)   bands (ev):

   -73.3087 -39.1823 -39.1823 -39.1791  -5.6558   7.4628   7.4628   7.5643
    12.4866  12.4866  13.0151  13.0752  13.8774  22.4452  23.9306

          k = 0.2201 0.0116 0.1158 (   384 PWs)   bands (ev):

   -73.3119 -39.2051 -39.1929 -39.1819  -5.6563   7.2728   7.4582   7.6908
    12.4726  12.4928  13.0651  13.0740  13.9071  22.4365  23.7555

          k = 0.2085 0.0232 0.1158 (   378 PWs)   bands (ev):

   -73.3068 -39.1906 -39.1723 -39.1556  -5.6569   7.0163   7.4965   7.8259
    12.4556  12.5173  13.0682  13.1993  13.9987  22.4924  23.3644

          k = 0.1969 0.0347 0.1158 (   380 PWs)   bands (ev):

   -73.3086 -39.2123 -39.1655 -39.1578  -5.6594   6.7259   7.5336   7.8936
    12.4511  12.5571  13.0538  13.3894  14.1305  22.5176  22.7849

          k = 0.1853 0.0463 0.1158 (   380 PWs)   bands (ev):

   -73.3094 -39.2213 -39.1582 -39.1563  -5.6625   6.4320   7.5866   7.9198
    12.4711  12.6125  13.0334  13.6195  14.2832  22.1401  22.5910

          k = 0.1737 0.0579 0.1158 (   378 PWs)   bands (ev):

   -73.3083 -39.2242 -39.1525 -39.1382  -5.6653   6.1616   7.6314   7.9126
    12.5156  12.6734  13.0129  13.8710  14.4378  21.4959  22.6783

          k = 0.1622 0.0695 0.1158 (   380 PWs)   bands (ev):

   -73.3103 -39.2370 -39.1481 -39.1443  -5.6686   5.9187   7.6849   7.8817
    12.5774  12.7255  13.0002  14.1389  14.5771  20.8518  22.7427

          k = 0.1506 0.0811 0.1158 (   378 PWs)   bands (ev):

   -73.3088 -39.2371 -39.1383 -39.1308  -5.6707   5.7190   7.7285   7.8527
    12.6463  12.7575  13.0042  14.3998  14.6983  20.2981  22.8230

          k = 0.1390 0.0927 0.1158 (   380 PWs)   bands (ev):

   -73.3107 -39.2585 -39.1330 -39.1325  -5.6756   5.5510   7.7590   7.8187
    12.7085  12.7679  13.0183  14.6287  14.7838  19.8218  22.8766

          k = 0.1274 0.1042 0.1158 (   380 PWs)   bands (ev):

   -73.3108 -39.2592 -39.1313 -39.1302  -5.6771   5.4586   7.7791   7.7960
    12.7518  12.7682  13.0353  14.7920  14.8366  19.5160  22.9176

          k = 0.1158 0.1158 0.1158 (   368 PWs)   bands (ev):

   -73.3004 -39.2350 -39.0890 -39.0890  -5.6760   5.4318   7.8130   7.8130
    12.7677  12.7677  13.0436  14.8735  14.8735  19.4334  23.0043

          k = 0.1223 0.1030 0.1223 (   376 PWs)   bands (ev):

   -73.3073 -39.2510 -39.1312 -39.1029  -5.6766   5.4578   7.7799   7.8120
    12.7527  12.7686  13.0362  14.7967  14.8504  19.5173  22.9429

          k = 0.1287 0.0901 0.1287 (   378 PWs)   bands (ev):

   -73.3088 -39.2502 -39.1336 -39.1196  -5.6753   5.5421   7.7603   7.8269
    12.7092  12.7720  13.0196  14.6439  14.7965  19.8013  22.9015

          k = 0.1351 0.0772 0.1351 (   381 PWs)   bands (ev):

   -73.3109 -39.2466 -39.1570 -39.1286  -5.6728   5.6890   7.7183   7.8593
    12.6377  12.7787  12.9997  14.4224  14.7156  20.2218  22.8326

          k = 0.1416 0.0643 0.1416 (   375 PWs)   bands (ev):

   -73.3058 -39.2149 -39.1445 -39.1204  -5.6683   5.8865   7.6813   7.9139
    12.5428  12.7897  12.9854  14.1803  14.6145  20.7824  22.8095

          k = 0.1480 0.0515 0.1480 (   376 PWs)   bands (ev):

   -73.3062 -39.2137 -39.1538 -39.1241  -5.6663   6.1147   7.6032   7.9745
    12.4275  12.8058  12.9779  13.9239  14.4871  21.3597  22.7227

          k = 0.1544 0.0386 0.1544 (   380 PWs)   bands (ev):

   -73.3090 -39.2161 -39.1714 -39.1426  -5.6651   6.3707   7.5119   8.0350
    12.2962  12.8277  12.9839  13.6905  14.3354  21.9338  22.6278

          k = 0.1609 0.0257 0.1609 (   383 PWs)   bands (ev):

   -73.3111 -39.2119 -39.2053 -39.1452  -5.6659   6.6497   7.3881   8.1124
    12.1529  12.8552  13.0034  13.4950  14.1746  22.2789  22.7413

          k = 0.1673 0.0129 0.1673 (   378 PWs)   bands (ev):

   -73.3069 -39.2006 -39.1964 -39.1230  -5.6696   6.9414   7.2847   8.2039
    12.0025  12.8873  13.0316  13.3639  14.0060  22.2226  23.2389

          k = 0.1737 0.0000 0.1737 (   377 PWs)   bands (ev):

   -73.3060 -39.1944 -39.1936 -39.1237  -5.6788   7.1435   7.2530   8.2938
    11.8484  12.9211  13.0508  13.3084  13.8280  22.0066  23.6715

     Writing output data file pwscf.save

     init_run     :      0.16s CPU      0.17s WALL (       1 calls)
     electrons    :      2.26s CPU      2.33s WALL (       1 calls)

     Called by init_run:
     wfcinit      :      0.00s CPU      0.00s WALL (       1 calls)
     wfcinit:atom :      0.00s CPU      0.00s WALL (      89 calls)
     wfcinit:wfcr :      0.20s CPU      0.21s WALL (      89 calls)
     potinit      :      0.05s CPU      0.05s WALL (       1 calls)

     Called by electrons:
     c_bands      :      2.26s CPU      2.33s WALL (       1 calls)
     v_of_rho     :      0.00s CPU      0.00s WALL (       1 calls)
     v_h          :      0.00s CPU      0.00s WALL (       1 calls)
     v_xc         :      0.00s CPU      0.00s WALL (       1 calls)
     newd         :      0.00s CPU      0.00s WALL (       1 calls)
     PAW_pot      :      0.05s CPU      0.05s WALL (       1 calls)

     Called by c_bands:
     init_us_2    :      0.01s CPU      0.01s WALL (      89 calls)
     cegterg      :      2.02s CPU      2.08s WALL (      89 calls)

     Called by sum_band:

     Called by *egterg:
     h_psi        :      1.00s CPU      1.05s WALL (     998 calls)
     s_psi        :      0.03s CPU      0.04s WALL (     998 calls)
     g_psi        :      0.00s CPU      0.01s WALL (     820 calls)
     cdiaghg      :      1.00s CPU      0.99s WALL (     909 calls)
     cegterg:over :      0.10s CPU      0.09s WALL (     820 calls)
     cegterg:upda :      0.02s CPU      0.04s WALL (     820 calls)
     cegterg:last :      0.03s CPU      0.03s WALL (     178 calls)

     Called by h_psi:
     h_psi:pot    :      1.00s CPU      1.04s WALL (     998 calls)
     h_psi:calbec :      0.05s CPU      0.05s WALL (     998 calls)
     vloc_psi     :      0.91s CPU      0.95s WALL (     998 calls)
     add_vuspsi   :      0.04s CPU      0.04s WALL (     998 calls)

     General routines
     calbec       :      0.04s CPU      0.05s WALL (     998 calls)
     fft          :      0.01s CPU      0.01s WALL (       5 calls)
     fftw         :      0.83s CPU      0.86s WALL (   19158 calls)
     davcio       :      0.00s CPU      0.00s WALL (     178 calls)

     Parallel routines
     fft_scatter  :      0.19s CPU      0.20s WALL (   19163 calls)

     PAW routines
     PAW_pot      :      0.05s CPU      0.05s WALL (       1 calls)

     PWSCF        :     3.62s CPU         4.01s WALL


   This run was terminated on:  18:26:47  15Aug2017            

=------------------------------------------------------------------------------=
   JOB DONE.
=------------------------------------------------------------------------------=
