
     Program PWSCF v.6.1 (svn rev. 13369) starts on 15Aug2017 at 18:26:34 

     This program is part of the open-source Quantum ESPRESSO suite
     for quantum simulation of materials; please cite
         "P. Giannozzi et al., J. Phys.:Condens. Matter 21 395502 (2009);
          URL http://www.quantum-espresso.org", 
     in publications or presentations arising from this work. More details at
     http://www.quantum-espresso.org/quote

     Parallel version (MPI), running on     8 processors
     R & G space division:  proc/nbgrp/npool/nimage =       8
     Waiting for input...
     Reading input from standard input

     Current dimensions of program PWSCF are:
     Max number of different atomic species (ntypx) = 10
     Max number of k-points (npk) =  40000
     Max angular momentum in pseudopotentials (lmaxx) =  3
               file Fe.pz-spn-kjpaw_psl.0.2.1.UPF: wavefunction(s)  3D renormalized
               file O.pz-n-kjpaw_psl.0.1.UPF: wavefunction(s)  2P renormalized

     Subspace diagonalization in iterative solution of the eigenvalue problem:
     a serial algorithm will be used


     Parallelization info
     --------------------
     sticks:   dense  smooth     PW     G-vecs:    dense   smooth      PW
     Min          33      33     12                  371      371      80
     Max          35      35     13                  372      372      81
     Sum         271     271     97                 2975     2975     645


     Title: 
     FeO                                                                        


     bravais-lattice index     =            0
     lattice parameter (alat)  =       1.8900  a.u.
     unit-cell volume          =     135.7822 (a.u.)^3
     number of atoms/cell      =            2
     number of atomic types    =            2
     number of electrons       =        22.00
     number of Kohn-Sham states=           15
     kinetic-energy cutoff     =      30.0000  Ry
     charge density cutoff     =     120.0000  Ry
     convergence threshold     =      1.0E-05
     mixing beta               =       0.7000
     number of iterations used =            8  plain     mixing
     Exchange-correlation      =  SLA  PZ   NOGX NOGC ( 1  1  0  0 0 0)

     celldm(1)=   1.890000  celldm(2)=   0.000000  celldm(3)=   0.000000
     celldm(4)=   0.000000  celldm(5)=   0.000000  celldm(6)=   0.000000

     crystal axes: (cart. coord. in units of alat)
               a(1) = (   2.158452   2.158452   0.000000 )  
               a(2) = (   2.158452   0.000000   2.158452 )  
               a(3) = (   0.000000   2.158452   2.158452 )  

     reciprocal axes: (cart. coord. in units 2 pi/alat)
               b(1) = (  0.231647  0.231647 -0.231647 )  
               b(2) = (  0.231647 -0.231647  0.231647 )  
               b(3) = ( -0.231647  0.231647  0.231647 )  


     PseudoPot. # 1 for Fe read from file:
     ./Fe.pz-spn-kjpaw_psl.0.2.1.UPF
     MD5 check sum: 27df73d5ef6bc58e09d33ce26ec3cbe0
     Pseudo is Projector augmented-wave + core cor, Zval = 16.0
     Generated using "atomic" code by A. Dal Corso  v.5.0.99 svn rev. 10869
     Shape of augmentation charge: PSQ
     Using radial grid of 1191 points,  6 beta functions with: 
                l(1) =   0
                l(2) =   0
                l(3) =   1
                l(4) =   1
                l(5) =   2
                l(6) =   2
     Q(r) pseudized with 0 coefficients 


     PseudoPot. # 2 for  O read from file:
     ./O.pz-n-kjpaw_psl.0.1.UPF
     MD5 check sum: ca354609ecacc13f4887e8db23a80a40
     Pseudo is Projector augmented-wave + core cor, Zval =  6.0
     Generated using "atomic" code by A. Dal Corso  v.5.0.99 svn rev. 10869
     Shape of augmentation charge: BESSEL
     Using radial grid of 1095 points,  4 beta functions with: 
                l(1) =   0
                l(2) =   0
                l(3) =   1
                l(4) =   1
     Q(r) pseudized with 0 coefficients 


     atomic species   valence    mass     pseudopotential
        Fe            16.00     1.00000     Fe( 1.00)
        O              6.00     1.00000      O( 1.00)

     48 Sym. Ops., with inversion, found


                                    s                        frac. trans.

      isym =  1     identity                                     

 cryst.   s( 1) = (     1          0          0      )
                  (     0          1          0      )
                  (     0          0          1      )

 cart.    s( 1) = (  1.0000000  0.0000000  0.0000000 )
                  (  0.0000000  1.0000000  0.0000000 )
                  (  0.0000000  0.0000000  1.0000000 )


      isym =  2     180 deg rotation - cart. axis [0,0,1]        

 cryst.   s( 2) = (    -1          0          0      )
                  (    -1          0          1      )
                  (    -1          1          0      )

 cart.    s( 2) = ( -1.0000000  0.0000000  0.0000000 )
                  (  0.0000000 -1.0000000  0.0000000 )
                  (  0.0000000  0.0000000  1.0000000 )


      isym =  3     180 deg rotation - cart. axis [0,1,0]        

 cryst.   s( 3) = (     0         -1          1      )
                  (     0         -1          0      )
                  (     1         -1          0      )

 cart.    s( 3) = ( -1.0000000  0.0000000  0.0000000 )
                  (  0.0000000  1.0000000  0.0000000 )
                  (  0.0000000  0.0000000 -1.0000000 )


      isym =  4     180 deg rotation - cart. axis [1,0,0]        

 cryst.   s( 4) = (     0          1         -1      )
                  (     1          0         -1      )
                  (     0          0         -1      )

 cart.    s( 4) = (  1.0000000  0.0000000  0.0000000 )
                  (  0.0000000 -1.0000000  0.0000000 )
                  (  0.0000000  0.0000000 -1.0000000 )


      isym =  5     180 deg rotation - cart. axis [1,1,0]        

 cryst.   s( 5) = (     1          0          0      )
                  (     1         -1          0      )
                  (     1          0         -1      )

 cart.    s( 5) = (  0.0000000  1.0000000  0.0000000 )
                  (  1.0000000  0.0000000  0.0000000 )
                  (  0.0000000  0.0000000 -1.0000000 )


      isym =  6     180 deg rotation - cart. axis [1,-1,0]       

 cryst.   s( 6) = (    -1          0          0      )
                  (     0          0         -1      )
                  (     0         -1          0      )

 cart.    s( 6) = (  0.0000000 -1.0000000  0.0000000 )
                  ( -1.0000000  0.0000000  0.0000000 )
                  (  0.0000000  0.0000000 -1.0000000 )


      isym =  7      90 deg rotation - cart. axis [0,0,-1]       

 cryst.   s( 7) = (     0          1         -1      )
                  (    -1          1          0      )
                  (     0          1          0      )

 cart.    s( 7) = (  0.0000000  1.0000000  0.0000000 )
                  ( -1.0000000  0.0000000  0.0000000 )
                  (  0.0000000  0.0000000  1.0000000 )


      isym =  8      90 deg rotation - cart. axis [0,0,1]        

 cryst.   s( 8) = (     0         -1          1      )
                  (     0          0          1      )
                  (    -1          0          1      )

 cart.    s( 8) = (  0.0000000 -1.0000000  0.0000000 )
                  (  1.0000000  0.0000000  0.0000000 )
                  (  0.0000000  0.0000000  1.0000000 )


      isym =  9     180 deg rotation - cart. axis [1,0,1]        

 cryst.   s( 9) = (    -1          1          0      )
                  (     0          1          0      )
                  (     0          1         -1      )

 cart.    s( 9) = (  0.0000000  0.0000000  1.0000000 )
                  (  0.0000000 -1.0000000  0.0000000 )
                  (  1.0000000  0.0000000  0.0000000 )


      isym = 10     180 deg rotation - cart. axis [-1,0,1]       

 cryst.   s(10) = (     0          0         -1      )
                  (     0         -1          0      )
                  (    -1          0          0      )

 cart.    s(10) = (  0.0000000  0.0000000 -1.0000000 )
                  (  0.0000000 -1.0000000  0.0000000 )
                  ( -1.0000000  0.0000000  0.0000000 )


      isym = 11      90 deg rotation - cart. axis [0,1,0]        

 cryst.   s(11) = (     1         -1          0      )
                  (     1          0         -1      )
                  (     1          0          0      )

 cart.    s(11) = (  0.0000000  0.0000000  1.0000000 )
                  (  0.0000000  1.0000000  0.0000000 )
                  ( -1.0000000  0.0000000  0.0000000 )


      isym = 12      90 deg rotation - cart. axis [0,-1,0]       

 cryst.   s(12) = (     0          0          1      )
                  (    -1          0          1      )
                  (     0         -1          1      )

 cart.    s(12) = (  0.0000000  0.0000000 -1.0000000 )
                  (  0.0000000  1.0000000  0.0000000 )
                  (  1.0000000  0.0000000  0.0000000 )


      isym = 13     180 deg rotation - cart. axis [0,1,1]        

 cryst.   s(13) = (    -1          0          1      )
                  (     0         -1          1      )
                  (     0          0          1      )

 cart.    s(13) = ( -1.0000000  0.0000000  0.0000000 )
                  (  0.0000000  0.0000000  1.0000000 )
                  (  0.0000000  1.0000000  0.0000000 )


      isym = 14     180 deg rotation - cart. axis [0,1,-1]       

 cryst.   s(14) = (     0         -1          0      )
                  (    -1          0          0      )
                  (     0          0         -1      )

 cart.    s(14) = ( -1.0000000  0.0000000  0.0000000 )
                  (  0.0000000  0.0000000 -1.0000000 )
                  (  0.0000000 -1.0000000  0.0000000 )


      isym = 15      90 deg rotation - cart. axis [-1,0,0]       

 cryst.   s(15) = (     1          0         -1      )
                  (     1          0          0      )
                  (     1         -1          0      )

 cart.    s(15) = (  1.0000000  0.0000000  0.0000000 )
                  (  0.0000000  0.0000000  1.0000000 )
                  (  0.0000000 -1.0000000  0.0000000 )


      isym = 16      90 deg rotation - cart. axis [1,0,0]        

 cryst.   s(16) = (     0          1          0      )
                  (     0          1         -1      )
                  (    -1          1          0      )

 cart.    s(16) = (  1.0000000  0.0000000  0.0000000 )
                  (  0.0000000  0.0000000 -1.0000000 )
                  (  0.0000000  1.0000000  0.0000000 )


      isym = 17     120 deg rotation - cart. axis [-1,-1,-1]     

 cryst.   s(17) = (     0          1          0      )
                  (     0          0          1      )
                  (     1          0          0      )

 cart.    s(17) = (  0.0000000  1.0000000  0.0000000 )
                  (  0.0000000  0.0000000  1.0000000 )
                  (  1.0000000  0.0000000  0.0000000 )


      isym = 18     120 deg rotation - cart. axis [-1,1,1]       

 cryst.   s(18) = (     0         -1          0      )
                  (     1         -1          0      )
                  (     0         -1          1      )

 cart.    s(18) = (  0.0000000 -1.0000000  0.0000000 )
                  (  0.0000000  0.0000000  1.0000000 )
                  ( -1.0000000  0.0000000  0.0000000 )


      isym = 19     120 deg rotation - cart. axis [1,1,-1]       

 cryst.   s(19) = (     1          0         -1      )
                  (     0          0         -1      )
                  (     0          1         -1      )

 cart.    s(19) = (  0.0000000  1.0000000  0.0000000 )
                  (  0.0000000  0.0000000 -1.0000000 )
                  ( -1.0000000  0.0000000  0.0000000 )


      isym = 20     120 deg rotation - cart. axis [1,-1,1]       

 cryst.   s(20) = (    -1          0          1      )
                  (    -1          1          0      )
                  (    -1          0          0      )

 cart.    s(20) = (  0.0000000 -1.0000000  0.0000000 )
                  (  0.0000000  0.0000000 -1.0000000 )
                  (  1.0000000  0.0000000  0.0000000 )


      isym = 21     120 deg rotation - cart. axis [1,1,1]        

 cryst.   s(21) = (     0          0          1      )
                  (     1          0          0      )
                  (     0          1          0      )

 cart.    s(21) = (  0.0000000  0.0000000  1.0000000 )
                  (  1.0000000  0.0000000  0.0000000 )
                  (  0.0000000  1.0000000  0.0000000 )


      isym = 22     120 deg rotation - cart. axis [-1,1,-1]      

 cryst.   s(22) = (     0          0         -1      )
                  (     0          1         -1      )
                  (     1          0         -1      )

 cart.    s(22) = (  0.0000000  0.0000000  1.0000000 )
                  ( -1.0000000  0.0000000  0.0000000 )
                  (  0.0000000 -1.0000000  0.0000000 )


      isym = 23     120 deg rotation - cart. axis [1,-1,-1]      

 cryst.   s(23) = (    -1          1          0      )
                  (    -1          0          0      )
                  (    -1          0          1      )

 cart.    s(23) = (  0.0000000  0.0000000 -1.0000000 )
                  ( -1.0000000  0.0000000  0.0000000 )
                  (  0.0000000  1.0000000  0.0000000 )


      isym = 24     120 deg rotation - cart. axis [-1,-1,1]      

 cryst.   s(24) = (     1         -1          0      )
                  (     0         -1          1      )
                  (     0         -1          0      )

 cart.    s(24) = (  0.0000000  0.0000000 -1.0000000 )
                  (  1.0000000  0.0000000  0.0000000 )
                  (  0.0000000 -1.0000000  0.0000000 )


      isym = 25     inversion                                    

 cryst.   s(25) = (    -1          0          0      )
                  (     0         -1          0      )
                  (     0          0         -1      )

 cart.    s(25) = ( -1.0000000  0.0000000  0.0000000 )
                  (  0.0000000 -1.0000000  0.0000000 )
                  (  0.0000000  0.0000000 -1.0000000 )


      isym = 26     inv. 180 deg rotation - cart. axis [0,0,1]   

 cryst.   s(26) = (     1          0          0      )
                  (     1          0         -1      )
                  (     1         -1          0      )

 cart.    s(26) = (  1.0000000  0.0000000  0.0000000 )
                  (  0.0000000  1.0000000  0.0000000 )
                  (  0.0000000  0.0000000 -1.0000000 )


      isym = 27     inv. 180 deg rotation - cart. axis [0,1,0]   

 cryst.   s(27) = (     0          1         -1      )
                  (     0          1          0      )
                  (    -1          1          0      )

 cart.    s(27) = (  1.0000000  0.0000000  0.0000000 )
                  (  0.0000000 -1.0000000  0.0000000 )
                  (  0.0000000  0.0000000  1.0000000 )


      isym = 28     inv. 180 deg rotation - cart. axis [1,0,0]   

 cryst.   s(28) = (     0         -1          1      )
                  (    -1          0          1      )
                  (     0          0          1      )

 cart.    s(28) = ( -1.0000000  0.0000000  0.0000000 )
                  (  0.0000000  1.0000000  0.0000000 )
                  (  0.0000000  0.0000000  1.0000000 )


      isym = 29     inv. 180 deg rotation - cart. axis [1,1,0]   

 cryst.   s(29) = (    -1          0          0      )
                  (    -1          1          0      )
                  (    -1          0          1      )

 cart.    s(29) = (  0.0000000 -1.0000000  0.0000000 )
                  ( -1.0000000  0.0000000  0.0000000 )
                  (  0.0000000  0.0000000  1.0000000 )


      isym = 30     inv. 180 deg rotation - cart. axis [1,-1,0]  

 cryst.   s(30) = (     1          0          0      )
                  (     0          0          1      )
                  (     0          1          0      )

 cart.    s(30) = (  0.0000000  1.0000000  0.0000000 )
                  (  1.0000000  0.0000000  0.0000000 )
                  (  0.0000000  0.0000000  1.0000000 )


      isym = 31     inv.  90 deg rotation - cart. axis [0,0,-1]  

 cryst.   s(31) = (     0         -1          1      )
                  (     1         -1          0      )
                  (     0         -1          0      )

 cart.    s(31) = (  0.0000000 -1.0000000  0.0000000 )
                  (  1.0000000  0.0000000  0.0000000 )
                  (  0.0000000  0.0000000 -1.0000000 )


      isym = 32     inv.  90 deg rotation - cart. axis [0,0,1]   

 cryst.   s(32) = (     0          1         -1      )
                  (     0          0         -1      )
                  (     1          0         -1      )

 cart.    s(32) = (  0.0000000  1.0000000  0.0000000 )
                  ( -1.0000000  0.0000000  0.0000000 )
                  (  0.0000000  0.0000000 -1.0000000 )


      isym = 33     inv. 180 deg rotation - cart. axis [1,0,1]   

 cryst.   s(33) = (     1         -1          0      )
                  (     0         -1          0      )
                  (     0         -1          1      )

 cart.    s(33) = (  0.0000000  0.0000000 -1.0000000 )
                  (  0.0000000  1.0000000  0.0000000 )
                  ( -1.0000000  0.0000000  0.0000000 )


      isym = 34     inv. 180 deg rotation - cart. axis [-1,0,1]  

 cryst.   s(34) = (     0          0          1      )
                  (     0          1          0      )
                  (     1          0          0      )

 cart.    s(34) = (  0.0000000  0.0000000  1.0000000 )
                  (  0.0000000  1.0000000  0.0000000 )
                  (  1.0000000  0.0000000  0.0000000 )


      isym = 35     inv.  90 deg rotation - cart. axis [0,1,0]   

 cryst.   s(35) = (    -1          1          0      )
                  (    -1          0          1      )
                  (    -1          0          0      )

 cart.    s(35) = (  0.0000000  0.0000000 -1.0000000 )
                  (  0.0000000 -1.0000000  0.0000000 )
                  (  1.0000000  0.0000000  0.0000000 )


      isym = 36     inv.  90 deg rotation - cart. axis [0,-1,0]  

 cryst.   s(36) = (     0          0         -1      )
                  (     1          0         -1      )
                  (     0          1         -1      )

 cart.    s(36) = (  0.0000000  0.0000000  1.0000000 )
                  (  0.0000000 -1.0000000  0.0000000 )
                  ( -1.0000000  0.0000000  0.0000000 )


      isym = 37     inv. 180 deg rotation - cart. axis [0,1,1]   

 cryst.   s(37) = (     1          0         -1      )
                  (     0          1         -1      )
                  (     0          0         -1      )

 cart.    s(37) = (  1.0000000  0.0000000  0.0000000 )
                  (  0.0000000  0.0000000 -1.0000000 )
                  (  0.0000000 -1.0000000  0.0000000 )


      isym = 38     inv. 180 deg rotation - cart. axis [0,1,-1]  

 cryst.   s(38) = (     0          1          0      )
                  (     1          0          0      )
                  (     0          0          1      )

 cart.    s(38) = (  1.0000000  0.0000000  0.0000000 )
                  (  0.0000000  0.0000000  1.0000000 )
                  (  0.0000000  1.0000000  0.0000000 )


      isym = 39     inv.  90 deg rotation - cart. axis [-1,0,0]  

 cryst.   s(39) = (    -1          0          1      )
                  (    -1          0          0      )
                  (    -1          1          0      )

 cart.    s(39) = ( -1.0000000  0.0000000  0.0000000 )
                  (  0.0000000  0.0000000 -1.0000000 )
                  (  0.0000000  1.0000000  0.0000000 )


      isym = 40     inv.  90 deg rotation - cart. axis [1,0,0]   

 cryst.   s(40) = (     0         -1          0      )
                  (     0         -1          1      )
                  (     1         -1          0      )

 cart.    s(40) = ( -1.0000000  0.0000000  0.0000000 )
                  (  0.0000000  0.0000000  1.0000000 )
                  (  0.0000000 -1.0000000  0.0000000 )


      isym = 41     inv. 120 deg rotation - cart. axis [-1,-1,-1]

 cryst.   s(41) = (     0         -1          0      )
                  (     0          0         -1      )
                  (    -1          0          0      )

 cart.    s(41) = (  0.0000000 -1.0000000  0.0000000 )
                  (  0.0000000  0.0000000 -1.0000000 )
                  ( -1.0000000  0.0000000  0.0000000 )


      isym = 42     inv. 120 deg rotation - cart. axis [-1,1,1]  

 cryst.   s(42) = (     0          1          0      )
                  (    -1          1          0      )
                  (     0          1         -1      )

 cart.    s(42) = (  0.0000000  1.0000000  0.0000000 )
                  (  0.0000000  0.0000000 -1.0000000 )
                  (  1.0000000  0.0000000  0.0000000 )


      isym = 43     inv. 120 deg rotation - cart. axis [1,1,-1]  

 cryst.   s(43) = (    -1          0          1      )
                  (     0          0          1      )
                  (     0         -1          1      )

 cart.    s(43) = (  0.0000000 -1.0000000  0.0000000 )
                  (  0.0000000  0.0000000  1.0000000 )
                  (  1.0000000  0.0000000  0.0000000 )


      isym = 44     inv. 120 deg rotation - cart. axis [1,-1,1]  

 cryst.   s(44) = (     1          0         -1      )
                  (     1         -1          0      )
                  (     1          0          0      )

 cart.    s(44) = (  0.0000000  1.0000000  0.0000000 )
                  (  0.0000000  0.0000000  1.0000000 )
                  ( -1.0000000  0.0000000  0.0000000 )


      isym = 45     inv. 120 deg rotation - cart. axis [1,1,1]   

 cryst.   s(45) = (     0          0         -1      )
                  (    -1          0          0      )
                  (     0         -1          0      )

 cart.    s(45) = (  0.0000000  0.0000000 -1.0000000 )
                  ( -1.0000000  0.0000000  0.0000000 )
                  (  0.0000000 -1.0000000  0.0000000 )


      isym = 46     inv. 120 deg rotation - cart. axis [-1,1,-1] 

 cryst.   s(46) = (     0          0          1      )
                  (     0         -1          1      )
                  (    -1          0          1      )

 cart.    s(46) = (  0.0000000  0.0000000 -1.0000000 )
                  (  1.0000000  0.0000000  0.0000000 )
                  (  0.0000000  1.0000000  0.0000000 )


      isym = 47     inv. 120 deg rotation - cart. axis [1,-1,-1] 

 cryst.   s(47) = (     1         -1          0      )
                  (     1          0          0      )
                  (     1          0         -1      )

 cart.    s(47) = (  0.0000000  0.0000000  1.0000000 )
                  (  1.0000000  0.0000000  0.0000000 )
                  (  0.0000000 -1.0000000  0.0000000 )


      isym = 48     inv. 120 deg rotation - cart. axis [-1,-1,1] 

 cryst.   s(48) = (    -1          1          0      )
                  (     0          1         -1      )
                  (     0          1          0      )

 cart.    s(48) = (  0.0000000  0.0000000  1.0000000 )
                  ( -1.0000000  0.0000000  0.0000000 )
                  (  0.0000000  1.0000000  0.0000000 )


   Cartesian axes

     site n.     atom                  positions (alat units)
         1           Fe  tau(   1) = (   0.0000000   0.0000000   0.0000000  )
         2           O   tau(   2) = (   0.0000000   0.0000000   2.1584524  )

   Crystallographic axes

     site n.     atom                  positions (cryst. coord.)
         1           Fe  tau(   1) = (  0.0000000  0.0000000  0.0000000  )
         2           O   tau(   2) = ( -0.5000000  0.5000000  0.5000000  )

     number of k points=    60  gaussian smearing, width (Ry)=  0.0200
                       cart. coord. in units 2pi/alat
        k(    1) = (   0.0144780   0.0144780   0.0144780), wk =   0.0078125
        k(    2) = (  -0.0144780   0.0434339   0.0434339), wk =   0.0234375
        k(    3) = (  -0.0434339   0.0723898   0.0723898), wk =   0.0234375
        k(    4) = (  -0.0723898   0.1013458   0.1013458), wk =   0.0234375
        k(    5) = (   0.1303017  -0.1013458  -0.1013458), wk =   0.0234375
        k(    6) = (   0.1013458  -0.0723898  -0.0723898), wk =   0.0234375
        k(    7) = (   0.0723898  -0.0434339  -0.0434339), wk =   0.0234375
        k(    8) = (   0.0434339  -0.0144780  -0.0144780), wk =   0.0234375
        k(    9) = (   0.0144780   0.0144780   0.0723898), wk =   0.0234375
        k(   10) = (  -0.0144780   0.0434339   0.1013458), wk =   0.0468750
        k(   11) = (  -0.0434339   0.0723898   0.1303017), wk =   0.0468750
        k(   12) = (   0.1592576  -0.1303017  -0.0723898), wk =   0.0468750
        k(   13) = (   0.1303017  -0.1013458  -0.0434339), wk =   0.0468750
        k(   14) = (   0.1013458  -0.0723898  -0.0144780), wk =   0.0468750
        k(   15) = (   0.0723898  -0.0434339   0.0144780), wk =   0.0468750
        k(   16) = (   0.0144780   0.0144780   0.1303017), wk =   0.0234375
        k(   17) = (  -0.0144780   0.0434339   0.1592576), wk =   0.0468750
        k(   18) = (   0.1882136  -0.1592576  -0.0434339), wk =   0.0468750
        k(   19) = (   0.1592576  -0.1303017  -0.0144780), wk =   0.0468750
        k(   20) = (   0.1303017  -0.1013458   0.0144780), wk =   0.0468750
        k(   21) = (   0.1013458  -0.0723898   0.0434339), wk =   0.0468750
        k(   22) = (   0.0144780   0.0144780   0.1882136), wk =   0.0234375
        k(   23) = (   0.2171695  -0.1882136  -0.0144780), wk =   0.0468750
        k(   24) = (   0.1882136  -0.1592576   0.0144780), wk =   0.0468750
        k(   25) = (   0.1592576  -0.1303017   0.0434339), wk =   0.0468750
        k(   26) = (   0.1303017  -0.1013458   0.0723898), wk =   0.0468750
        k(   27) = (   0.0144780   0.0144780  -0.2171695), wk =   0.0234375
        k(   28) = (  -0.0144780   0.0434339  -0.1882136), wk =   0.0468750
        k(   29) = (  -0.0434339   0.0723898  -0.1592576), wk =   0.0468750
        k(   30) = (   0.0144780   0.0144780  -0.1592576), wk =   0.0234375
        k(   31) = (  -0.0144780   0.0434339  -0.1303017), wk =   0.0468750
        k(   32) = (   0.0144780   0.0144780  -0.1013458), wk =   0.0234375
        k(   33) = (   0.0434339   0.0434339   0.0434339), wk =   0.0078125
        k(   34) = (   0.0144780   0.0723898   0.0723898), wk =   0.0234375
        k(   35) = (  -0.0144780   0.1013458   0.1013458), wk =   0.0234375
        k(   36) = (   0.1882136  -0.1013458  -0.1013458), wk =   0.0234375
        k(   37) = (   0.1592576  -0.0723898  -0.0723898), wk =   0.0234375
        k(   38) = (   0.1303017  -0.0434339  -0.0434339), wk =   0.0234375
        k(   39) = (   0.0434339   0.0434339   0.1013458), wk =   0.0234375
        k(   40) = (   0.0144780   0.0723898   0.1303017), wk =   0.0468750
        k(   41) = (   0.2171695  -0.1303017  -0.0723898), wk =   0.0468750
        k(   42) = (   0.1882136  -0.1013458  -0.0434339), wk =   0.0468750
        k(   43) = (   0.1592576  -0.0723898  -0.0144780), wk =   0.0468750
        k(   44) = (   0.0434339   0.0434339   0.1592576), wk =   0.0234375
        k(   45) = (   0.2461254  -0.1592576  -0.0434339), wk =   0.0468750
        k(   46) = (   0.2171695  -0.1303017  -0.0144780), wk =   0.0468750
        k(   47) = (   0.1882136  -0.1013458   0.0144780), wk =   0.0468750
        k(   48) = (   0.0434339   0.0434339  -0.2461254), wk =   0.0234375
        k(   49) = (   0.0144780   0.0723898  -0.2171695), wk =   0.0468750
        k(   50) = (   0.0434339   0.0434339  -0.1882136), wk =   0.0234375
        k(   51) = (   0.0723898   0.0723898   0.0723898), wk =   0.0078125
        k(   52) = (   0.0434339   0.1013458   0.1013458), wk =   0.0234375
        k(   53) = (   0.2461254  -0.1013458  -0.1013458), wk =   0.0234375
        k(   54) = (   0.2171695  -0.0723898  -0.0723898), wk =   0.0234375
        k(   55) = (   0.0723898   0.0723898   0.1303017), wk =   0.0234375
        k(   56) = (   0.2750814  -0.1303017  -0.0723898), wk =   0.0468750
        k(   57) = (   0.2461254  -0.1013458  -0.0434339), wk =   0.0468750
        k(   58) = (   0.0723898   0.0723898  -0.2750814), wk =   0.0234375
        k(   59) = (   0.1013458   0.1013458   0.1013458), wk =   0.0078125
        k(   60) = (   0.3040373  -0.1013458  -0.1013458), wk =   0.0234375

                       cryst. coord.
        k(    1) = (   0.0625000   0.0625000   0.0625000), wk =   0.0078125
        k(    2) = (   0.0625000   0.0625000   0.1875000), wk =   0.0234375
        k(    3) = (   0.0625000   0.0625000   0.3125000), wk =   0.0234375
        k(    4) = (   0.0625000   0.0625000   0.4375000), wk =   0.0234375
        k(    5) = (   0.0625000   0.0625000  -0.4375000), wk =   0.0234375
        k(    6) = (   0.0625000   0.0625000  -0.3125000), wk =   0.0234375
        k(    7) = (   0.0625000   0.0625000  -0.1875000), wk =   0.0234375
        k(    8) = (   0.0625000   0.0625000  -0.0625000), wk =   0.0234375
        k(    9) = (   0.0625000   0.1875000   0.1875000), wk =   0.0234375
        k(   10) = (   0.0625000   0.1875000   0.3125000), wk =   0.0468750
        k(   11) = (   0.0625000   0.1875000   0.4375000), wk =   0.0468750
        k(   12) = (   0.0625000   0.1875000  -0.4375000), wk =   0.0468750
        k(   13) = (   0.0625000   0.1875000  -0.3125000), wk =   0.0468750
        k(   14) = (   0.0625000   0.1875000  -0.1875000), wk =   0.0468750
        k(   15) = (   0.0625000   0.1875000  -0.0625000), wk =   0.0468750
        k(   16) = (   0.0625000   0.3125000   0.3125000), wk =   0.0234375
        k(   17) = (   0.0625000   0.3125000   0.4375000), wk =   0.0468750
        k(   18) = (   0.0625000   0.3125000  -0.4375000), wk =   0.0468750
        k(   19) = (   0.0625000   0.3125000  -0.3125000), wk =   0.0468750
        k(   20) = (   0.0625000   0.3125000  -0.1875000), wk =   0.0468750
        k(   21) = (   0.0625000   0.3125000  -0.0625000), wk =   0.0468750
        k(   22) = (   0.0625000   0.4375000   0.4375000), wk =   0.0234375
        k(   23) = (   0.0625000   0.4375000  -0.4375000), wk =   0.0468750
        k(   24) = (   0.0625000   0.4375000  -0.3125000), wk =   0.0468750
        k(   25) = (   0.0625000   0.4375000  -0.1875000), wk =   0.0468750
        k(   26) = (   0.0625000   0.4375000  -0.0625000), wk =   0.0468750
        k(   27) = (   0.0625000  -0.4375000  -0.4375000), wk =   0.0234375
        k(   28) = (   0.0625000  -0.4375000  -0.3125000), wk =   0.0468750
        k(   29) = (   0.0625000  -0.4375000  -0.1875000), wk =   0.0468750
        k(   30) = (   0.0625000  -0.3125000  -0.3125000), wk =   0.0234375
        k(   31) = (   0.0625000  -0.3125000  -0.1875000), wk =   0.0468750
        k(   32) = (   0.0625000  -0.1875000  -0.1875000), wk =   0.0234375
        k(   33) = (   0.1875000   0.1875000   0.1875000), wk =   0.0078125
        k(   34) = (   0.1875000   0.1875000   0.3125000), wk =   0.0234375
        k(   35) = (   0.1875000   0.1875000   0.4375000), wk =   0.0234375
        k(   36) = (   0.1875000   0.1875000  -0.4375000), wk =   0.0234375
        k(   37) = (   0.1875000   0.1875000  -0.3125000), wk =   0.0234375
        k(   38) = (   0.1875000   0.1875000  -0.1875000), wk =   0.0234375
        k(   39) = (   0.1875000   0.3125000   0.3125000), wk =   0.0234375
        k(   40) = (   0.1875000   0.3125000   0.4375000), wk =   0.0468750
        k(   41) = (   0.1875000   0.3125000  -0.4375000), wk =   0.0468750
        k(   42) = (   0.1875000   0.3125000  -0.3125000), wk =   0.0468750
        k(   43) = (   0.1875000   0.3125000  -0.1875000), wk =   0.0468750
        k(   44) = (   0.1875000   0.4375000   0.4375000), wk =   0.0234375
        k(   45) = (   0.1875000   0.4375000  -0.4375000), wk =   0.0468750
        k(   46) = (   0.1875000   0.4375000  -0.3125000), wk =   0.0468750
        k(   47) = (   0.1875000   0.4375000  -0.1875000), wk =   0.0468750
        k(   48) = (   0.1875000  -0.4375000  -0.4375000), wk =   0.0234375
        k(   49) = (   0.1875000  -0.4375000  -0.3125000), wk =   0.0468750
        k(   50) = (   0.1875000  -0.3125000  -0.3125000), wk =   0.0234375
        k(   51) = (   0.3125000   0.3125000   0.3125000), wk =   0.0078125
        k(   52) = (   0.3125000   0.3125000   0.4375000), wk =   0.0234375
        k(   53) = (   0.3125000   0.3125000  -0.4375000), wk =   0.0234375
        k(   54) = (   0.3125000   0.3125000  -0.3125000), wk =   0.0234375
        k(   55) = (   0.3125000   0.4375000   0.4375000), wk =   0.0234375
        k(   56) = (   0.3125000   0.4375000  -0.4375000), wk =   0.0468750
        k(   57) = (   0.3125000   0.4375000  -0.3125000), wk =   0.0468750
        k(   58) = (   0.3125000  -0.4375000  -0.4375000), wk =   0.0234375
        k(   59) = (   0.4375000   0.4375000   0.4375000), wk =   0.0078125
        k(   60) = (   0.4375000   0.4375000  -0.4375000), wk =   0.0234375

     Dense  grid:     2975 G-vectors     FFT dimensions: (  24,  24,  24)

     Estimated max dynamical RAM per process >       1.15MB

     Estimated total allocated dynamical RAM >       9.20MB

     Check: negative/imaginary core charge=   -0.007909    0.000000

     Initial potential from superposition of free atoms

     starting charge   21.99965, renormalised to   22.00000
     Starting wfc are   17 randomized atomic wfcs
     Checking if some PAW data can be deallocated... 
       node    0, deallocated PAW data for type:  2
       node    1, deallocated PAW data for type:  2
       node    2, deallocated PAW data for type:  2
       node    3, deallocated PAW data for type:  2
       node    4, deallocated PAW data for type:  1
       node    5, deallocated PAW data for type:  1
       node    6, deallocated PAW data for type:  1
       node    7, deallocated PAW data for type:  1

     total cpu time spent up to now is        1.1 secs

     per-process dynamical memory:    43.7 Mb

     Self-consistent Calculation

     iteration #  1     ecut=    30.00 Ry     beta=0.70
     Davidson diagonalization with overlap
     ethr =  1.00E-02,  avg # of iterations =  3.2

     Threshold (ethr) on eigenvalues was too large:
     Diagonalizing with lowered threshold

     Davidson diagonalization with overlap
     ethr =  7.83E-04,  avg # of iterations =  1.2

     total cpu time spent up to now is        2.0 secs

     total energy              =    -365.02936897 Ry
     Harris-Foulkes estimate   =    -365.12525281 Ry
     estimated scf accuracy    <       0.17166084 Ry

     iteration #  2     ecut=    30.00 Ry     beta=0.70
     Davidson diagonalization with overlap
     ethr =  7.80E-04,  avg # of iterations =  2.1

     total cpu time spent up to now is        2.5 secs

     total energy              =    -364.81511356 Ry
     Harris-Foulkes estimate   =    -365.26573438 Ry
     estimated scf accuracy    <       1.82862566 Ry

     iteration #  3     ecut=    30.00 Ry     beta=0.70
     Davidson diagonalization with overlap
     ethr =  7.80E-04,  avg # of iterations =  2.1

     total cpu time spent up to now is        3.1 secs

     total energy              =    -365.08592051 Ry
     Harris-Foulkes estimate   =    -365.10137078 Ry
     estimated scf accuracy    <       0.06172793 Ry

     iteration #  4     ecut=    30.00 Ry     beta=0.70
     Davidson diagonalization with overlap
     ethr =  2.81E-04,  avg # of iterations =  2.0

     negative rho (up, down):  5.157E-05 0.000E+00

     total cpu time spent up to now is        3.6 secs

     total energy              =    -365.08992412 Ry
     Harris-Foulkes estimate   =    -365.09210799 Ry
     estimated scf accuracy    <       0.00850948 Ry

     iteration #  5     ecut=    30.00 Ry     beta=0.70
     Davidson diagonalization with overlap
     ethr =  3.87E-05,  avg # of iterations =  1.5

     negative rho (up, down):  1.121E-04 0.000E+00

     total cpu time spent up to now is        4.0 secs

     total energy              =    -365.09042563 Ry
     Harris-Foulkes estimate   =    -365.09066624 Ry
     estimated scf accuracy    <       0.00077146 Ry

     iteration #  6     ecut=    30.00 Ry     beta=0.70
     Davidson diagonalization with overlap
     ethr =  3.51E-06,  avg # of iterations =  1.9

     negative rho (up, down):  1.054E-04 0.000E+00

     total cpu time spent up to now is        4.4 secs

     total energy              =    -365.09055762 Ry
     Harris-Foulkes estimate   =    -365.09056862 Ry
     estimated scf accuracy    <       0.00003882 Ry

     iteration #  7     ecut=    30.00 Ry     beta=0.70
     Davidson diagonalization with overlap
     ethr =  1.76E-07,  avg # of iterations =  2.0

     negative rho (up, down):  1.067E-04 0.000E+00

     total cpu time spent up to now is        4.9 secs

     End of self-consistent calculation

          k = 0.0145 0.0145 0.0145 (   357 PWs)   bands (ev):

   -73.2979 -39.0963 -39.0713 -39.0713  -6.8037   9.6394   9.7766   9.7766
    11.8798  11.8798  11.9082  12.4092  12.4092  14.9776  28.8962

     occupation numbers 
     1.0000   1.0000   1.0000   1.0000   1.0000   1.0000   1.0000   1.0000
     1.0000   1.0000   1.0000   0.9999   0.9999   0.0000   0.0000

          k =-0.0145 0.0434 0.0434 (   367 PWs)   bands (ev):

   -73.3057 -39.1354 -39.1100 -39.0999  -6.6080   8.4557   9.0781   9.3732
    11.9765  12.0800  12.2095  12.6984  13.2641  16.1060  27.3066

     occupation numbers 
     1.0000   1.0000   1.0000   1.0000   1.0000   1.0000   1.0000   1.0000
     1.0000   1.0000   1.0000   0.9835   0.2094   0.0000   0.0000

          k =-0.0434 0.0724 0.0724 (   371 PWs)   bands (ev):

   -73.3056 -39.1927 -39.1108 -39.1004  -6.2057   6.9273   8.3542   8.5578
    12.2863  12.3472  12.5964  13.6024  14.1975  17.8185  25.2040

     occupation numbers 
     1.0000   1.0000   1.0000   1.0000   1.0000   1.0000   1.0000   1.0000
     1.0000   1.0000   0.9961   0.0051   0.0000   0.0000   0.0000

          k =-0.0724 0.1013 0.1013 (   372 PWs)   bands (ev):

   -73.3029 -39.2143 -39.1184 -39.0991  -5.8058   5.8248   7.9083   7.9726
    12.6201  12.6700  12.9160  14.3961  14.7779  19.2229  23.4986

     occupation numbers 
     1.0000   1.0000   1.0000   1.0000   1.0000   1.0000   1.0000   1.0000
     0.9944   0.9887   0.8416   0.0000   0.0000   0.0000   0.0000

          k = 0.1303-0.1013-0.1013 (   380 PWs)   bands (ev):

   -73.3089 -39.2568 -39.1308 -39.1289  -5.6832   5.5055   7.7672   7.8214
    12.7156  12.7792  13.0267  14.7525  14.7796  19.6108  22.9249

     occupation numbers 
     1.0000   1.0000   1.0000   1.0000   1.0000   1.0000   1.0000   1.0000
     0.9795   0.9565   0.6648   0.0000   0.0000   0.0000   0.0000

          k = 0.1013-0.0724-0.0724 (   373 PWs)   bands (ev):

   -73.3044 -39.1928 -39.1206 -39.1174  -5.9202   6.1235   8.0015   8.1504
    12.4225  12.6634  12.8226  14.2467  14.5351  18.8601  23.9765

     occupation numbers 
     1.0000   1.0000   1.0000   1.0000   1.0000   1.0000   1.0000   1.0000
     0.9998   0.9896   0.9314   0.0000   0.0000   0.0000   0.0000

          k = 0.0724-0.0434-0.0434 (   370 PWs)   bands (ev):

   -73.3062 -39.1566 -39.1256 -39.1047  -6.3536   7.4308   8.6250   8.8252
    12.0429  12.3591  12.4543  13.3708  13.7895  17.2860  25.9127

     occupation numbers 
     1.0000   1.0000   1.0000   1.0000   1.0000   1.0000   1.0000   1.0000
     1.0000   1.0000   0.9997   0.0865   0.0002   0.0000   0.0000

          k = 0.0434-0.0145-0.0145 (   365 PWs)   bands (ev):

   -73.3040 -39.1352 -39.1007 -39.0818  -6.7043   8.8259   9.5351   9.5921
    11.8027  12.0814  12.1166  12.4633  12.8735  15.6174  28.0107

     occupation numbers 
     1.0000   1.0000   1.0000   1.0000   1.0000   1.0000   1.0000   1.0000
     1.0000   1.0000   1.0000   0.9996   0.8891   0.0000   0.0000

          k = 0.0145 0.0145 0.0724 (   364 PWs)   bands (ev):

   -73.3021 -39.1368 -39.0974 -39.0908  -6.5262   7.9228   9.3024   9.3701
    11.6522  12.3169  12.4382  12.6046  13.2151  16.7460  27.1316

     occupation numbers 
     1.0000   1.0000   1.0000   1.0000   1.0000   1.0000   1.0000   1.0000
     1.0000   1.0000   0.9998   0.9956   0.2899   0.0000   0.0000

          k =-0.0145 0.0434 0.1013 (   371 PWs)   bands (ev):

   -73.3051 -39.1695 -39.1287 -39.1020  -6.2328   7.0489   8.6322   8.9043
    11.7355  12.5551  12.7253  12.9884  13.8424  18.1495  25.8904

     occupation numbers 
     1.0000   1.0000   1.0000   1.0000   1.0000   1.0000   1.0000   1.0000
     1.0000   0.9980   0.9768   0.7338   0.0001   0.0000   0.0000

          k =-0.0434 0.0724 0.1303 (   378 PWs)   bands (ev):

   -73.3073 -39.2084 -39.1543 -39.1210  -5.8753   6.2789   7.9351   8.2667
    12.1011  12.7759  12.9555  13.7024  14.4033  19.6688  24.0725

     occupation numbers 
     1.0000   1.0000   1.0000   1.0000   1.0000   1.0000   1.0000   1.0000
     1.0000   0.9581   0.7869   0.0010   0.0000   0.0000   0.0000

          k = 0.1593-0.1303-0.0724 (   380 PWs)   bands (ev):

   -73.3085 -39.2373 -39.1474 -39.1384  -5.6759   5.8869   7.6828   7.9085
    12.5268  12.7775  13.0035  14.2030  14.5662  20.7079  22.7917

     occupation numbers 
     1.0000   1.0000   1.0000   1.0000   1.0000   1.0000   1.0000   1.0000
     0.9988   0.9573   0.7075   0.0000   0.0000   0.0000   0.0000

          k = 0.1303-0.1013-0.0434 (   378 PWs)   bands (ev):

   -73.3070 -39.2178 -39.1424 -39.1311  -5.7711   6.0689   7.8348   7.9852
    12.4488  12.7360  12.9448  13.7924  14.7354  20.1425  23.5158

     occupation numbers 
     1.0000   1.0000   1.0000   1.0000   1.0000   1.0000   1.0000   1.0000
     0.9997   0.9736   0.8026   0.0002   0.0000   0.0000   0.0000

          k = 0.1013-0.0724-0.0145 (   376 PWs)   bands (ev):

   -73.3078 -39.1820 -39.1378 -39.1302  -6.0988   6.7481   8.2090   8.5463
    12.1178  12.5881  12.7561  13.1176  14.4087  18.6080  25.2462

     occupation numbers 
     1.0000   1.0000   1.0000   1.0000   1.0000   1.0000   1.0000   1.0000
     1.0000   0.9966   0.9665   0.4814   0.0000   0.0000   0.0000

          k = 0.0724-0.0434 0.0145 (   370 PWs)   bands (ev):

   -73.3067 -39.1386 -39.1296 -39.1142  -6.4382   7.7140   8.8048   9.1217
    11.8923  12.3378  12.4461  12.8382  13.6553  17.0353  26.5303

     occupation numbers 
     1.0000   1.0000   1.0000   1.0000   1.0000   1.0000   1.0000   1.0000
     1.0000   1.0000   0.9997   0.9200   0.0022   0.0000   0.0000

          k = 0.0145 0.0145 0.1303 (   367 PWs)   bands (ev):

   -73.2986 -39.1619 -39.1074 -39.1010  -6.1007   6.7834   8.9415   9.0157
    11.2571  12.5786  12.9508  12.9913  13.4948  19.0873  25.8969

     occupation numbers 
     1.0000   1.0000   1.0000   1.0000   1.0000   1.0000   1.0000   1.0000
     1.0000   0.9971   0.7939   0.7290   0.0224   0.0000   0.0000

          k =-0.0145 0.0434 0.1593 (   377 PWs)   bands (ev):

   -73.3040 -39.2064 -39.1493 -39.1170  -5.8826   6.6111   8.4019   8.6426
    11.4243  12.8198  13.0449  13.1499  13.7204  20.1056  24.9211

     occupation numbers 
     1.0000   1.0000   1.0000   1.0000   1.0000   1.0000   1.0000   1.0000
     1.0000   0.9333   0.6296   0.4149   0.0007   0.0000   0.0000

          k = 0.1882-0.1593-0.0434 (   379 PWs)   bands (ev):

   -73.3060 -39.2017 -39.1839 -39.1298  -5.7024   6.6453   7.6159   8.2113
    11.9432  12.8818  13.0465  13.5364  13.9299  21.5122  23.3316

     occupation numbers 
     1.0000   1.0000   1.0000   1.0000   1.0000   1.0000   1.0000   1.0000
     1.0000   0.8807   0.6264   0.0131   0.0000   0.0000   0.0000

          k = 0.1593-0.1303-0.0145 (   382 PWs)   bands (ev):

   -73.3087 -39.2213 -39.1806 -39.1410  -5.6714   6.5007   7.4933   7.9470
    12.4828  12.6767  12.9901  13.3718  14.4705  21.9517  23.2487

     occupation numbers 
     1.0000   1.0000   1.0000   1.0000   1.0000   1.0000   1.0000   1.0000
     0.9994   0.9876   0.7309   0.0857   0.0000   0.0000   0.0000

          k = 0.1303-0.1013 0.0145 (   380 PWs)   bands (ev):

   -73.3082 -39.2059 -39.1556 -39.1430  -5.8078   6.3227   7.9060   7.9918
    12.3990  12.7363  12.8951  13.3083  14.7211  20.2703  24.2361

     occupation numbers 
     1.0000   1.0000   1.0000   1.0000   1.0000   1.0000   1.0000   1.0000
     0.9999   0.9735   0.8663   0.1496   0.0000   0.0000   0.0000

          k = 0.1013-0.0724 0.0434 (   374 PWs)   bands (ev):

   -73.3061 -39.1856 -39.1342 -39.1156  -6.0322   6.4927   8.1140   8.3805
    12.2098  12.5896  12.8005  13.6791  14.4382  18.6630  24.6220

     occupation numbers 
     1.0000   1.0000   1.0000   1.0000   1.0000   1.0000   1.0000   1.0000
     1.0000   0.9965   0.9453   0.0015   0.0000   0.0000   0.0000

          k = 0.0145 0.0145 0.1882 (   374 PWs)   bands (ev):

   -73.3005 -39.2102 -39.1245 -39.1234  -5.8279   6.7367   8.7787   8.8837
    10.9416  12.7429  13.0792  13.0825  13.3097  20.3591  24.2152

     occupation numbers 
     1.0000   1.0000   1.0000   1.0000   1.0000   1.0000   1.0000   1.0000
     1.0000   0.9713   0.5605   0.5538   0.1479   0.0000   0.0000

          k = 0.2172-0.1882-0.0145 (   373 PWs)   bands (ev):

   -73.2999 -39.2026 -39.1412 -39.1179  -5.7448   6.9299   8.2865   8.5813
    11.2645  12.9682  13.0507  13.0752  13.3333  21.0076  23.6678

     occupation numbers 
     1.0000   1.0000   1.0000   1.0000   1.0000   1.0000   1.0000   1.0000
     1.0000   0.7672   0.6181   0.5688   0.1214   0.0000   0.0000

          k = 0.1882-0.1593 0.0145 (   379 PWs)   bands (ev):

   -73.3059 -39.2006 -39.1953 -39.1291  -5.6794   7.0160   7.3796   8.2149
    11.9124  12.8843  13.0542  13.3061  13.8468  21.9913  23.4718

     occupation numbers 
     1.0000   1.0000   1.0000   1.0000   1.0000   1.0000   1.0000   1.0000
     1.0000   0.8781   0.6111   0.1523   0.0001   0.0000   0.0000

          k = 0.1593-0.1303 0.0434 (   380 PWs)   bands (ev):

   -73.3081 -39.2257 -39.1621 -39.1398  -5.6668   6.2081   7.6008   7.9291
    12.4883  12.7205  12.9865  13.7690  14.4892  21.5773  22.6916

     occupation numbers 
     1.0000   1.0000   1.0000   1.0000   1.0000   1.0000   1.0000   1.0000
     0.9994   0.9782   0.7372   0.0003   0.0000   0.0000   0.0000

          k = 0.1303-0.1013 0.0724 (   376 PWs)   bands (ev):

   -73.3057 -39.2277 -39.1306 -39.1195  -5.7193   5.7328   7.7820   7.9100
    12.5850  12.7722  12.9893  14.3827  14.7543  19.8745  23.1111

     occupation numbers 
     1.0000   1.0000   1.0000   1.0000   1.0000   1.0000   1.0000   1.0000
     0.9967   0.9598   0.7324   0.0000   0.0000   0.0000   0.0000

          k = 0.0145 0.0145-0.2172 (   379 PWs)   bands (ev):

   -73.3040 -39.2235 -39.1487 -39.1397  -5.7799   6.8499   8.7348   8.8469
    10.8698  12.7828  13.0687  13.0758  13.1630  20.5569  23.6380

     occupation numbers 
     1.0000   1.0000   1.0000   1.0000   1.0000   1.0000   1.0000   1.0000
     1.0000   0.9548   0.5820   0.5676   0.3886   0.0000   0.0000

          k =-0.0145 0.0434-0.1882 (   379 PWs)   bands (ev):

   -73.3045 -39.2157 -39.1521 -39.1339  -5.7876   6.7419   8.3237   8.5826
    11.3174  12.9029  13.0740  13.1208  13.5019  20.6801  24.1343

     occupation numbers 
     1.0000   1.0000   1.0000   1.0000   1.0000   1.0000   1.0000   1.0000
     1.0000   0.8574   0.5712   0.4746   0.0205   0.0000   0.0000

          k =-0.0434 0.0724-0.1593 (   378 PWs)   bands (ev):

   -73.3059 -39.2124 -39.1522 -39.1294  -5.7636   6.3508   7.7891   8.2174
    12.0076  12.8659  13.0285  13.6773  14.1722  20.6437  23.6356

     occupation numbers 
     1.0000   1.0000   1.0000   1.0000   1.0000   1.0000   1.0000   1.0000
     1.0000   0.8964   0.6613   0.0016   0.0000   0.0000   0.0000

          k = 0.0145 0.0145-0.1593 (   377 PWs)   bands (ev):

   -73.3042 -39.2279 -39.1290 -39.1171  -5.9349   6.6249   8.8255   8.9132
    11.0757  12.6712  13.0534  13.0708  13.4542  19.8484  25.2958

     occupation numbers 
     1.0000   1.0000   1.0000   1.0000   1.0000   1.0000   1.0000   1.0000
     1.0000   0.9885   0.6129   0.5779   0.0362   0.0000   0.0000

          k =-0.0145 0.0434-0.1303 (   373 PWs)   bands (ev):

   -73.3031 -39.1862 -39.1284 -39.1096  -6.0362   6.6742   8.5046   8.7378
    11.5699  12.7069  12.9372  13.1061  13.8520  19.2604  25.3998

     occupation numbers 
     1.0000   1.0000   1.0000   1.0000   1.0000   1.0000   1.0000   1.0000
     1.0000   0.9816   0.8135   0.5052   0.0001   0.0000   0.0000

          k = 0.0145 0.0145-0.1013 (   364 PWs)   bands (ev):

   -73.2998 -39.1521 -39.0952 -39.0896  -6.3102   7.2047   9.1012   9.1714
    11.4597  12.4683  12.7395  12.8208  13.4157  17.9612  26.4254

     occupation numbers 
     1.0000   1.0000   1.0000   1.0000   1.0000   1.0000   1.0000   1.0000
     1.0000   0.9996   0.9724   0.9326   0.0552   0.0000   0.0000

          k = 0.0434 0.0434 0.0434 (   362 PWs)   bands (ev):

   -73.3016 -39.1398 -39.0869 -39.0869  -6.5145   8.0893   8.9815   8.9815
    12.1297  12.1297  12.2104  13.3056  13.3056  16.4998  26.6569

     occupation numbers 
     1.0000   1.0000   1.0000   1.0000   1.0000   1.0000   1.0000   1.0000
     1.0000   1.0000   1.0000   0.1529   0.1529   0.0000   0.0000

          k = 0.0145 0.0724 0.0724 (   372 PWs)   bands (ev):

   -73.3069 -39.1711 -39.1292 -39.1076  -6.2823   7.2320   8.4204   8.8203
    12.1631  12.3512  12.5836  12.9826  14.1766  17.6745  25.8285

     occupation numbers 
     1.0000   1.0000   1.0000   1.0000   1.0000   1.0000   1.0000   1.0000
     1.0000   1.0000   0.9968   0.7437   0.0000   0.0000   0.0000

          k =-0.0145 0.1013 0.1013 (   376 PWs)   bands (ev):

   -73.3059 -39.1846 -39.1595 -39.1115  -5.9415   6.4435   8.0142   8.2178
    12.3977  12.6091  12.8193  13.2327  14.7435  19.3839  24.6657

     occupation numbers 
     1.0000   1.0000   1.0000   1.0000   1.0000   1.0000   1.0000   1.0000
     0.9999   0.9953   0.9336   0.2595   0.0000   0.0000   0.0000

          k = 0.1882-0.1013-0.1013 (   380 PWs)   bands (ev):

   -73.3084 -39.2289 -39.1549 -39.1358  -5.6975   6.0327   7.7308   7.8746
    12.6353  12.6894  12.9249  13.8158  14.7501  20.7780  23.0582

     occupation numbers 
     1.0000   1.0000   1.0000   1.0000   1.0000   1.0000   1.0000   1.0000
     0.9930   0.9853   0.8301   0.0001   0.0000   0.0000   0.0000

          k = 0.1593-0.0724-0.0724 (   381 PWs)   bands (ev):

   -73.3091 -39.2355 -39.1557 -39.1386  -5.7137   6.0760   7.6780   8.0703
    12.2561  12.8550  13.0210  14.1739  14.2366  20.6785  23.0689

     occupation numbers 
     1.0000   1.0000   1.0000   1.0000   1.0000   1.0000   1.0000   1.0000
     1.0000   0.9062   0.6756   0.0000   0.0000   0.0000   0.0000

          k = 0.1303-0.0434-0.0434 (   380 PWs)   bands (ev):

   -73.3087 -39.1959 -39.1562 -39.1381  -5.9756   6.5233   8.1786   8.5501
    11.7595  12.7666  12.9440  13.4639  13.9901  19.3781  24.7496

     occupation numbers 
     1.0000   1.0000   1.0000   1.0000   1.0000   1.0000   1.0000   1.0000
     1.0000   0.9622   0.8037   0.0324   0.0000   0.0000   0.0000

          k = 0.0434 0.0434 0.1013 (   373 PWs)   bands (ev):

   -73.3063 -39.1748 -39.1324 -39.1153  -6.1593   6.8449   8.3847   8.6746
    11.9045  12.5855  12.7375  13.4347  14.0055  18.3200  25.2795

     occupation numbers 
     1.0000   1.0000   1.0000   1.0000   1.0000   1.0000   1.0000   1.0000
     1.0000   0.9967   0.9731   0.0450   0.0000   0.0000   0.0000

          k = 0.0145 0.0724 0.1303 (   378 PWs)   bands (ev):

   -73.3068 -39.2009 -39.1425 -39.1320  -5.9272   6.4923   8.1044   8.3550
    12.0048  12.7562  12.9207  13.2193  14.3831  19.6449  24.7770

     occupation numbers 
     1.0000   1.0000   1.0000   1.0000   1.0000   1.0000   1.0000   1.0000
     1.0000   0.9665   0.8356   0.2824   0.0000   0.0000   0.0000

          k = 0.2172-0.1303-0.0724 (   381 PWs)   bands (ev):

   -73.3082 -39.2142 -39.1704 -39.1421  -5.7196   6.4450   7.7628   7.9272
    12.3431  12.7193  13.0035  13.3202  14.4536  21.2452  23.8110

     occupation numbers 
     1.0000   1.0000   1.0000   1.0000   1.0000   1.0000   1.0000   1.0000
     1.0000   0.9785   0.7075   0.1357   0.0000   0.0000   0.0000

          k = 0.1882-0.1013-0.0434 (   380 PWs)   bands (ev):

   -73.3074 -39.2116 -39.1741 -39.1438  -5.6675   6.5212   7.5590   7.9616
    12.3433  12.6912  13.0408  13.5557  14.2088  22.1022  22.7794

     occupation numbers 
     1.0000   1.0000   1.0000   1.0000   1.0000   1.0000   1.0000   1.0000
     1.0000   0.9850   0.6376   0.0101   0.0000   0.0000   0.0000

          k = 0.1593-0.0724-0.0145 (   381 PWs)   bands (ev):

   -73.3073 -39.2120 -39.1615 -39.1396  -5.8003   6.5174   8.0073   8.2212
    11.9010  12.8291  13.0256  13.2435  14.1616  20.5964  24.3742

     occupation numbers 
     1.0000   1.0000   1.0000   1.0000   1.0000   1.0000   1.0000   1.0000
     1.0000   0.9268   0.6669   0.2415   0.0000   0.0000   0.0000

          k = 0.0434 0.0434 0.1593 (   380 PWs)   bands (ev):

   -73.3067 -39.2137 -39.1564 -39.1325  -5.8361   6.5200   8.0390   8.5011
    11.6360  12.8912  13.0428  13.4625  13.8139  20.2853  24.2578

     occupation numbers 
     1.0000   1.0000   1.0000   1.0000   1.0000   1.0000   1.0000   1.0000
     1.0000   0.8707   0.6338   0.0329   0.0001   0.0000   0.0000

          k = 0.2461-0.1593-0.0434 (   383 PWs)   bands (ev):

   -73.3086 -39.2136 -39.1798 -39.1526  -5.7268   6.7517   7.8810   8.1659
    11.8276  12.8517  13.0673  13.1953  13.8601  21.3014  23.9342

     occupation numbers 
     1.0000   1.0000   1.0000   1.0000   1.0000   1.0000   1.0000   1.0000
     1.0000   0.9090   0.5849   0.3260   0.0000   0.0000   0.0000

          k = 0.2172-0.1303-0.0145 (   385 PWs)   bands (ev):

   -73.3110 -39.2050 -39.1951 -39.1825  -5.6625   7.1795   7.4900   7.7760
    12.2783  12.6524  13.0744  13.0913  13.8954  22.3168  23.6777

     occupation numbers 
     1.0000   1.0000   1.0000   1.0000   1.0000   1.0000   1.0000   1.0000
     1.0000   0.9911   0.5704   0.5357   0.0000   0.0000   0.0000

          k = 0.1882-0.1013 0.0145 (   381 PWs)   bands (ev):

   -73.3077 -39.2036 -39.1773 -39.1566  -5.6762   6.7804   7.6477   7.8825
    12.3012  12.6589  13.0605  13.2486  14.1047  22.0214  23.5468

     occupation numbers 
     1.0000   1.0000   1.0000   1.0000   1.0000   1.0000   1.0000   1.0000
     1.0000   0.9903   0.5987   0.2333   0.0000   0.0000   0.0000

          k = 0.0434 0.0434-0.2461 (   377 PWs)   bands (ev):

   -73.3034 -39.2043 -39.1633 -39.1328  -5.7173   6.9712   7.7804   8.4955
    11.5033  12.9864  13.0626  13.3023  13.4217  21.3659  23.6477

     occupation numbers 
     1.0000   1.0000   1.0000   1.0000   1.0000   1.0000   1.0000   1.0000
     1.0000   0.7373   0.5944   0.1570   0.0518   0.0000   0.0000

          k = 0.0145 0.0724-0.2172 (   380 PWs)   bands (ev):

   -73.3066 -39.1977 -39.1782 -39.1545  -5.6967   7.0489   7.7754   8.1341
    11.7909  12.8841  13.0744  13.0796  13.6779  21.6872  23.6835

     occupation numbers 
     1.0000   1.0000   1.0000   1.0000   1.0000   1.0000   1.0000   1.0000
     1.0000   0.8783   0.5705   0.5599   0.0015   0.0000   0.0000

          k = 0.0434 0.0434-0.1882 (   378 PWs)   bands (ev):

   -73.3047 -39.2039 -39.1686 -39.1282  -5.7525   6.7239   7.9041   8.4932
    11.5478  12.9606  13.0601  13.4401  13.5368  20.9994  23.8542

     occupation numbers 
     1.0000   1.0000   1.0000   1.0000   1.0000   1.0000   1.0000   1.0000
     1.0000   0.7791   0.5995   0.0425   0.0130   0.0000   0.0000

          k = 0.0724 0.0724 0.0724 (   365 PWs)   bands (ev):

   -73.2998 -39.1951 -39.0818 -39.0818  -6.0739   6.4959   8.2668   8.2668
    12.4770  12.4770  12.6107  14.2371  14.2371  18.1871  24.5541

     occupation numbers 
     1.0000   1.0000   1.0000   1.0000   1.0000   1.0000   1.0000   1.0000
     0.9995   0.9995   0.9952   0.0000   0.0000   0.0000   0.0000

          k = 0.0434 0.1013 0.1013 (   374 PWs)   bands (ev):

   -73.3043 -39.2098 -39.1294 -39.1049  -5.8897   6.1846   7.9712   8.1301
    12.4874  12.5653  12.8897  13.7690  14.7580  19.3146  23.9976

     occupation numbers 
     1.0000   1.0000   1.0000   1.0000   1.0000   1.0000   1.0000   1.0000
     0.9994   0.9976   0.8723   0.0003   0.0000   0.0000   0.0000

          k = 0.2461-0.1013-0.1013 (   380 PWs)   bands (ev):

   -73.3078 -39.2258 -39.1543 -39.1376  -5.7179   6.2985   7.7119   7.9030
    12.6367  12.6471  12.9008  13.3667  14.7403  21.0576  23.7312

     occupation numbers 
     1.0000   1.0000   1.0000   1.0000   1.0000   1.0000   1.0000   1.0000
     0.9929   0.9918   0.8599   0.0898   0.0000   0.0000   0.0000

          k = 0.2172-0.0724-0.0724 (   380 PWs)   bands (ev):

   -73.3071 -39.2081 -39.1921 -39.1321  -5.6625   6.7483   7.3293   8.1009
    12.1833  12.8418  13.0108  13.3885  14.2146  22.4943  22.8655

     occupation numbers 
     1.0000   1.0000   1.0000   1.0000   1.0000   1.0000   1.0000   1.0000
     1.0000   0.9172   0.6942   0.0729   0.0000   0.0000   0.0000

          k = 0.0724 0.0724 0.1303 (   377 PWs)   bands (ev):

   -73.3069 -39.2180 -39.1394 -39.1259  -5.7946   5.9697   7.8125   8.0946
    12.3338  12.7956  12.9782  14.2527  14.4819  19.7214  23.4855

     occupation numbers 
     1.0000   1.0000   1.0000   1.0000   1.0000   1.0000   1.0000   1.0000
     1.0000   0.9481   0.7510   0.0000   0.0000   0.0000   0.0000

          k = 0.2751-0.1303-0.0724 (   379 PWs)   bands (ev):

   -73.3073 -39.2170 -39.1572 -39.1390  -5.6982   6.2030   7.6908   7.9656
    12.3853  12.7558  13.0032  13.7460  14.4760  21.1107  23.0943

     occupation numbers 
     1.0000   1.0000   1.0000   1.0000   1.0000   1.0000   1.0000   1.0000
     0.9999   0.9666   0.7080   0.0005   0.0000   0.0000   0.0000

          k = 0.2461-0.1013-0.0434 (   382 PWs)   bands (ev):

   -73.3087 -39.2025 -39.1964 -39.1537  -5.6599   6.8729   7.4035   7.9397
    12.3290  12.6644  13.0549  13.2837  14.0980  22.4880  23.1645

     occupation numbers 
     1.0000   1.0000   1.0000   1.0000   1.0000   1.0000   1.0000   1.0000
     1.0000   0.9895   0.6098   0.1813   0.0000   0.0000   0.0000

          k = 0.0724 0.0724-0.2751 (   380 PWs)   bands (ev):

   -73.3072 -39.2141 -39.1693 -39.1409  -5.6741   6.3936   7.5250   8.0849
    12.2052  12.8574  13.0026  13.7432  14.2232  21.7595  22.7535

     occupation numbers 
     1.0000   1.0000   1.0000   1.0000   1.0000   1.0000   1.0000   1.0000
     1.0000   0.9041   0.7091   0.0005   0.0000   0.0000   0.0000

          k = 0.1013 0.1013 0.1013 (   374 PWs)   bands (ev):

   -73.3042 -39.2530 -39.1031 -39.1031  -5.7286   5.5558   7.8520   7.8520
    12.7322  12.7322  12.9825  14.7884  14.7884  19.2611  23.1262

     occupation numbers 
     1.0000   1.0000   1.0000   1.0000   1.0000   1.0000   1.0000   1.0000
     0.9748   0.9748   0.7438   0.0000   0.0000   0.0000   0.0000

          k = 0.3040-0.1013-0.1013 (   379 PWs)   bands (ev):

   -73.3077 -39.2354 -39.1412 -39.1306  -5.6765   5.7050   7.7474   7.8399
    12.6716  12.7545  12.9898  14.3685  14.7675  20.2090  22.8704

     occupation numbers 
     1.0000   1.0000   1.0000   1.0000   1.0000   1.0000   1.0000   1.0000
     0.9884   0.9671   0.7314   0.0000   0.0000   0.0000   0.0000

     the Fermi energy is    13.1086 ev

!    total energy              =    -365.09056432 Ry
     Harris-Foulkes estimate   =    -365.09056433 Ry
     estimated scf accuracy    <       0.00000002 Ry

     total all-electron energy =     -2690.339510 Ry

     The total energy is the sum of the following terms:

     one-electron contribution =    -132.49411227 Ry
     hartree contribution      =      79.27020992 Ry
     xc contribution           =     -41.55015127 Ry
     ewald contribution        =    -189.73132980 Ry
     one-center paw contrib.   =     -80.56917262 Ry
      -> PAW hartree energy AE =     209.90240480 Ry
      -> PAW hartree energy PS =    -209.10834927 Ry
      -> PAW xc energy AE      =    -106.57468759 Ry
      -> PAW xc energy PS      =      33.89737692 Ry
      -> total E_H with PAW    =      80.06426545 Ry
      -> total E_XC with PAW   =    -114.22746194 Ry
     smearing contrib. (-TS)   =      -0.01600829 Ry

     convergence has been achieved in   7 iterations

     Writing output data file pwscf.save

     init_run     :      0.31s CPU      0.32s WALL (       1 calls)
     electrons    :      3.71s CPU      3.88s WALL (       1 calls)

     Called by init_run:
     wfcinit      :      0.14s CPU      0.15s WALL (       1 calls)
     wfcinit:atom :      0.00s CPU      0.00s WALL (      60 calls)
     wfcinit:wfcr :      0.13s CPU      0.14s WALL (      60 calls)
     potinit      :      0.05s CPU      0.05s WALL (       1 calls)

     Called by electrons:
     c_bands      :      2.92s CPU      3.01s WALL (       8 calls)
     sum_band     :      0.46s CPU      0.46s WALL (       8 calls)
     v_of_rho     :      0.00s CPU      0.00s WALL (       8 calls)
     v_h          :      0.00s CPU      0.00s WALL (       8 calls)
     v_xc         :      0.00s CPU      0.00s WALL (       8 calls)
     newd         :      0.02s CPU      0.02s WALL (       8 calls)
     PAW_pot      :      0.36s CPU      0.37s WALL (       8 calls)
     mix_rho      :      0.00s CPU      0.00s WALL (       8 calls)

     Called by c_bands:
     init_us_2    :      0.04s CPU      0.05s WALL (    1020 calls)
     cegterg      :      2.82s CPU      2.92s WALL (     480 calls)

     Called by sum_band:
     sum_band:bec :      0.01s CPU      0.01s WALL (     480 calls)
     addusdens    :      0.02s CPU      0.02s WALL (       8 calls)

     Called by *egterg:
     h_psi        :      1.80s CPU      1.87s WALL (    1508 calls)
     s_psi        :      0.06s CPU      0.06s WALL (    1508 calls)
     g_psi        :      0.00s CPU      0.01s WALL (     968 calls)
     cdiaghg      :      0.84s CPU      0.83s WALL (    1388 calls)
     cegterg:over :      0.12s CPU      0.11s WALL (     968 calls)
     cegterg:upda :      0.01s CPU      0.04s WALL (     968 calls)
     cegterg:last :      0.01s CPU      0.02s WALL (     480 calls)

     Called by h_psi:
     h_psi:pot    :      1.80s CPU      1.86s WALL (    1508 calls)
     h_psi:calbec :      0.09s CPU      0.08s WALL (    1508 calls)
     vloc_psi     :      1.64s CPU      1.71s WALL (    1508 calls)
     add_vuspsi   :      0.07s CPU      0.07s WALL (    1508 calls)

     General routines
     calbec       :      0.12s CPU      0.11s WALL (    1988 calls)
     fft          :      0.01s CPU      0.01s WALL (      50 calls)
     fftw         :      1.82s CPU      1.85s WALL (   42146 calls)

     Parallel routines
     fft_scatter  :      0.39s CPU      0.42s WALL (   42196 calls)

     PAW routines
     PAW_pot      :      0.36s CPU      0.37s WALL (       8 calls)
     PAW_symme    :      0.01s CPU      0.01s WALL (      16 calls)

     PWSCF        :     5.08s CPU         5.45s WALL


   This run was terminated on:  18:26:39  15Aug2017            

=------------------------------------------------------------------------------=
   JOB DONE.
=------------------------------------------------------------------------------=
