
     Program PROJWFC v.6.1 (svn rev. 13369) starts on 15Aug2017 at 18:20:55 

     This program is part of the open-source Quantum ESPRESSO suite
     for quantum simulation of materials; please cite
         "P. Giannozzi et al., J. Phys.:Condens. Matter 21 395502 (2009);
          URL http://www.quantum-espresso.org", 
     in publications or presentations arising from this work. More details at
     http://www.quantum-espresso.org/quote

     Parallel version (MPI), running on     8 processors
     R & G space division:  proc/nbgrp/npool/nimage =       8

     Reading data from directory:
     ./outdir/pwscf.save

   Info: using nr1, nr2, nr3 values from input

   Info: using nr1, nr2, nr3 values from input

     IMPORTANT: XC functional enforced from input :
     Exchange-correlation      =  SLA  PZ   NOGX NOGC ( 1  1  0  0 0 0)
     Any further DFT definition will be discarded
     Please, verify this is what you really want

               file Fe.pz-spn-kjpaw_psl.0.2.1.UPF: wavefunction(s)  3D renormalized
               file O.pz-n-kjpaw_psl.0.1.UPF: wavefunction(s)  2P renormalized

     Parallelization info
     --------------------
     sticks:   dense  smooth     PW     G-vecs:    dense   smooth      PW
     Min          33      33     11                  371      371      70
     Max          35      35     12                  372      372      71
     Sum         271     271     91                 2975     2975     561

     Generating pointlists ...
     new r_m :   0.4125 (alat units)  0.7796 (a.u.) for type    1
     new r_m :   0.4125 (alat units)  0.7796 (a.u.) for type    2

     Check: negative/imaginary core charge=   -0.007909    0.000000

     negative rho (up, down):  8.432E-06 9.346E-04

     Gaussian broadening (read from file): ngauss,degauss=   0    0.020000


     Calling projwave .... 

     Atomic states used for projection
     (read from pseudopotential files):

     state #   1: atom   1 (Fe ), wfc  1 (l=0 m= 1)
     state #   2: atom   1 (Fe ), wfc  2 (l=0 m= 1)
     state #   3: atom   1 (Fe ), wfc  3 (l=1 m= 1)
     state #   4: atom   1 (Fe ), wfc  3 (l=1 m= 2)
     state #   5: atom   1 (Fe ), wfc  3 (l=1 m= 3)
     state #   6: atom   1 (Fe ), wfc  4 (l=1 m= 1)
     state #   7: atom   1 (Fe ), wfc  4 (l=1 m= 2)
     state #   8: atom   1 (Fe ), wfc  4 (l=1 m= 3)
     state #   9: atom   1 (Fe ), wfc  5 (l=2 m= 1)
     state #  10: atom   1 (Fe ), wfc  5 (l=2 m= 2)
     state #  11: atom   1 (Fe ), wfc  5 (l=2 m= 3)
     state #  12: atom   1 (Fe ), wfc  5 (l=2 m= 4)
     state #  13: atom   1 (Fe ), wfc  5 (l=2 m= 5)
     state #  14: atom   2 (O  ), wfc  1 (l=0 m= 1)
     state #  15: atom   2 (O  ), wfc  2 (l=1 m= 1)
     state #  16: atom   2 (O  ), wfc  2 (l=1 m= 2)
     state #  17: atom   2 (O  ), wfc  2 (l=1 m= 3)

 k =   0.0000000000  0.0000000000  0.0000000000
==== e(   1) =   -75.60585 eV ==== 
     psi = 0.974*[#   1]+0.026*[#   2]+
    |psi|^2 = 1.000
==== e(   2) =   -41.28102 eV ==== 
     psi = 0.889*[#   3]+0.070*[#   4]+0.020*[#   6]+0.015*[#   5]+0.002*[#  15]+
          +0.002*[#   7]+
    |psi|^2 = 0.999
==== e(   3) =   -41.28102 eV ==== 
     psi = 0.756*[#   5]+0.218*[#   4]+0.017*[#   8]+0.005*[#   7]+0.002*[#  17]+
    |psi|^2 = 0.999
==== e(   4) =   -41.28102 eV ==== 
     psi = 0.686*[#   4]+0.203*[#   5]+0.085*[#   3]+0.015*[#   7]+0.005*[#   8]+
          +0.002*[#   6]+0.002*[#  16]+
    |psi|^2 = 0.999
==== e(   5) =    -6.46953 eV ==== 
     psi = 0.627*[#  14]+0.362*[#   2]+0.011*[#   1]+
    |psi|^2 = 1.000
==== e(   6) =     9.96861 eV ==== 
     psi = 0.550*[#  10]+0.352*[#  11]+0.097*[#  13]+
    |psi|^2 = 0.999
==== e(   7) =     9.96861 eV ==== 
     psi = 0.480*[#  13]+0.392*[#  11]+0.126*[#  10]+
    |psi|^2 = 0.999
==== e(   8) =     9.96861 eV ==== 
     psi = 0.421*[#  13]+0.323*[#  10]+0.255*[#  11]+
    |psi|^2 = 0.999
==== e(   9) =    10.23772 eV ==== 
     psi = 0.939*[#  12]+0.061*[#   9]+
    |psi|^2 = 0.999
==== e(  10) =    10.23772 eV ==== 
     psi = 0.939*[#   9]+0.061*[#  12]+
    |psi|^2 = 0.999
==== e(  11) =    10.42421 eV ==== 
     psi = 0.917*[#  15]+0.058*[#  16]+0.012*[#   6]+0.007*[#  17]+0.001*[#   3]+
    |psi|^2 = 0.996
==== e(  12) =    10.42421 eV ==== 
     psi = 0.824*[#  17]+0.137*[#  16]+0.022*[#  15]+0.010*[#   8]+0.002*[#   7]+
    |psi|^2 = 0.996
==== e(  13) =    10.42421 eV ==== 
     psi = 0.787*[#  16]+0.152*[#  17]+0.044*[#  15]+0.010*[#   7]+0.002*[#   8]+
    |psi|^2 = 0.996
==== e(  14) =    14.49427 eV ==== 
     psi = 0.609*[#   2]+0.371*[#  14]+0.015*[#   1]+
    |psi|^2 = 0.995
==== e(  15) =    29.29450 eV ==== 
     psi = 
    |psi|^2 = 0.000

 k =   0.0154431636  0.0000000000  0.0000000000
==== e(   1) =   -75.61429 eV ==== 
     psi = 0.965*[#   1]+0.021*[#   2]+0.013*[#   7]+
    |psi|^2 = 1.000
==== e(   2) =   -41.34229 eV ==== 
     psi = 0.977*[#   4]+0.018*[#   7]+0.002*[#  16]+0.001*[#   2]+
    |psi|^2 = 0.999
==== e(   3) =   -41.29680 eV ==== 
     psi = 0.870*[#   5]+0.105*[#   3]+0.019*[#   8]+0.002*[#   6]+0.002*[#  17]+
    |psi|^2 = 0.999
==== e(   4) =   -41.29680 eV ==== 
     psi = 0.870*[#   3]+0.105*[#   5]+0.019*[#   6]+0.002*[#   8]+0.002*[#  15]+
    |psi|^2 = 0.999
==== e(   5) =    -6.45813 eV ==== 
     psi = 0.623*[#  14]+0.341*[#   2]+0.024*[#   7]+0.012*[#   1]+
    |psi|^2 = 1.000
==== e(   6) =     9.78655 eV ==== 
     psi = 0.447*[#  16]+0.404*[#  12]+0.135*[#   9]+0.006*[#   2]+0.003*[#  14]+
          +0.003*[#   7]+
    |psi|^2 = 0.998
==== e(   7) =     9.89548 eV ==== 
     psi = 0.581*[#  10]+0.273*[#  13]+0.096*[#  15]+0.045*[#  17]+0.002*[#   6]+
          +0.001*[#   8]+
    |psi|^2 = 0.999
==== e(   8) =     9.89548 eV ==== 
     psi = 0.581*[#  13]+0.273*[#  10]+0.096*[#  17]+0.045*[#  15]+0.002*[#   8]+
          +0.001*[#   6]+
    |psi|^2 = 0.999
==== e(   9) =     9.95857 eV ==== 
     psi = 0.999*[#  11]+
    |psi|^2 = 0.999
==== e(  10) =    10.24178 eV ==== 
     psi = 0.749*[#   9]+0.250*[#  12]+
    |psi|^2 = 0.999
==== e(  11) =    10.49506 eV ==== 
     psi = 0.675*[#  17]+0.166*[#  15]+0.116*[#  13]+0.029*[#  10]+0.008*[#   8]+
          +0.002*[#   6]+
    |psi|^2 = 0.997
==== e(  12) =    10.49506 eV ==== 
     psi = 0.675*[#  15]+0.166*[#  17]+0.116*[#  10]+0.029*[#  13]+0.008*[#   6]+
          +0.002*[#   8]+
    |psi|^2 = 0.997
==== e(  13) =    10.77196 eV ==== 
     psi = 0.517*[#  16]+0.345*[#  12]+0.115*[#   9]+0.010*[#   2]+0.006*[#  14]+
          +0.003*[#   7]+
    |psi|^2 = 0.997
==== e(  14) =    14.58899 eV ==== 
     psi = 0.572*[#   2]+0.364*[#  14]+0.022*[#   7]+0.022*[#  16]+0.015*[#   1]+
    |psi|^2 = 0.995
==== e(  15) =    28.93841 eV ==== 
     psi = 
    |psi|^2 = 0.000

 k =   0.0308863272  0.0000000000  0.0000000000
==== e(   1) =   -75.61746 eV ==== 
     psi = 0.946*[#   1]+0.043*[#   7]+0.010*[#   2]+
    |psi|^2 = 1.000
==== e(   2) =   -41.37087 eV ==== 
     psi = 0.982*[#   4]+0.011*[#   7]+0.004*[#   2]+0.002*[#  16]+
    |psi|^2 = 0.999
==== e(   3) =   -41.30223 eV ==== 
     psi = 0.719*[#   5]+0.257*[#   3]+0.015*[#   8]+0.005*[#   6]+0.002*[#  17]+
    |psi|^2 = 0.999
==== e(   4) =   -41.30223 eV ==== 
     psi = 0.719*[#   3]+0.257*[#   5]+0.015*[#   6]+0.005*[#   8]+0.002*[#  15]+
    |psi|^2 = 0.999
==== e(   5) =    -6.41124 eV ==== 
     psi = 0.616*[#  14]+0.290*[#   2]+0.081*[#   7]+0.013*[#   1]+
    |psi|^2 = 1.000
==== e(   6) =     9.20862 eV ==== 
     psi = 0.513*[#  16]+0.338*[#  12]+0.113*[#   9]+0.021*[#   2]+0.011*[#  14]+
    |psi|^2 = 0.998
==== e(   7) =     9.74965 eV ==== 
     psi = 0.587*[#  10]+0.249*[#  15]+0.107*[#  13]+0.045*[#  17]+0.008*[#   6]+
          +0.001*[#   8]+
    |psi|^2 = 0.998
==== e(   8) =     9.74965 eV ==== 
     psi = 0.587*[#  13]+0.249*[#  17]+0.107*[#  10]+0.045*[#  15]+0.008*[#   8]+
          +0.001*[#   6]+
    |psi|^2 = 0.998
==== e(   9) =     9.92895 eV ==== 
     psi = 0.999*[#  11]+
    |psi|^2 = 0.999
==== e(  10) =    10.25377 eV ==== 
     psi = 0.749*[#   9]+0.250*[#  12]+
    |psi|^2 = 0.999
==== e(  11) =    10.64661 eV ==== 
     psi = 0.454*[#  15]+0.233*[#  17]+0.200*[#  10]+0.103*[#  13]+0.004*[#   6]+
          +0.002*[#   8]+
    |psi|^2 = 0.997
==== e(  12) =    10.64661 eV ==== 
     psi = 0.454*[#  17]+0.233*[#  15]+0.200*[#  13]+0.103*[#  10]+0.004*[#   8]+
          +0.002*[#   6]+
    |psi|^2 = 0.997
==== e(  13) =    11.09644 eV ==== 
     psi = 0.408*[#  12]+0.394*[#  16]+0.136*[#   9]+0.034*[#   2]+0.023*[#  14]+
          +0.001*[#   1]+
    |psi|^2 = 0.997
==== e(  14) =    14.92061 eV ==== 
     psi = 0.482*[#   2]+0.342*[#  14]+0.079*[#  16]+0.073*[#   7]+0.016*[#   1]+
          +0.002*[#  12]+
    |psi|^2 = 0.995
==== e(  15) =    28.31960 eV ==== 
     psi = 
    |psi|^2 = 0.001

 k =   0.0463294907  0.0000000000  0.0000000000
==== e(   1) =   -75.62047 eV ==== 
     psi = 0.927*[#   1]+0.070*[#   7]+0.003*[#   2]+
    |psi|^2 = 1.000
==== e(   2) =   -41.38799 eV ==== 
     psi = 0.987*[#   4]+0.006*[#   2]+0.004*[#   7]+0.001*[#  16]+
    |psi|^2 = 0.999
==== e(   3) =   -41.31351 eV ==== 
     psi = 0.947*[#   5]+0.030*[#   3]+0.017*[#   8]+0.003*[#  17]+
    |psi|^2 = 0.999
==== e(   4) =   -41.31351 eV ==== 
     psi = 0.947*[#   3]+0.030*[#   5]+0.017*[#   6]+0.003*[#  15]+
    |psi|^2 = 0.999
==== e(   5) =    -6.33676 eV ==== 
     psi = 0.610*[#  14]+0.232*[#   2]+0.141*[#   7]+0.015*[#   1]+
    |psi|^2 = 1.000
==== e(   6) =     8.64021 eV ==== 
     psi = 0.532*[#  16]+0.305*[#  12]+0.102*[#   9]+0.035*[#   2]+0.020*[#  14]+
          +0.002*[#   1]+0.002*[#   7]+
    |psi|^2 = 0.998
==== e(   7) =     9.59107 eV ==== 
     psi = 0.392*[#  10]+0.261*[#  15]+0.198*[#  13]+0.132*[#  17]+0.010*[#   6]+
          +0.005*[#   8]+
    |psi|^2 = 0.998
==== e(   8) =     9.59107 eV ==== 
     psi = 0.392*[#  13]+0.261*[#  17]+0.198*[#  10]+0.132*[#  15]+0.010*[#   8]+
          +0.005*[#   6]+
    |psi|^2 = 0.998
==== e(   9) =     9.88119 eV ==== 
     psi = 0.998*[#  11]+
    |psi|^2 = 0.998
==== e(  10) =    10.27313 eV ==== 
     psi = 0.749*[#   9]+0.250*[#  12]+
    |psi|^2 = 0.999
==== e(  11) =    10.80469 eV ==== 
     psi = 0.384*[#  15]+0.267*[#  10]+0.201*[#  17]+0.139*[#  13]+0.003*[#   6]+
          +0.002*[#   8]+
    |psi|^2 = 0.997
==== e(  12) =    10.80469 eV ==== 
     psi = 0.384*[#  17]+0.267*[#  13]+0.201*[#  15]+0.139*[#  10]+0.003*[#   8]+
          +0.002*[#   6]+
    |psi|^2 = 0.997
==== e(  13) =    11.33631 eV ==== 
     psi = 0.435*[#  12]+0.309*[#  16]+0.145*[#   9]+0.056*[#   2]+0.046*[#  14]+
          +0.003*[#   7]+0.002*[#   1]+
    |psi|^2 = 0.997
==== e(  14) =    15.42213 eV ==== 
     psi = 0.386*[#   2]+0.312*[#  14]+0.148*[#  16]+0.123*[#   7]+0.016*[#   1]+
          +0.008*[#  12]+0.003*[#   9]+
    |psi|^2 = 0.995
==== e(  15) =    27.70466 eV ==== 
     psi = 0.001*[#  11]+
    |psi|^2 = 0.001

 k =   0.0617726543  0.0000000000  0.0000000000
==== e(   1) =   -75.62943 eV ==== 
     psi = 0.912*[#   1]+0.086*[#   7]+
    |psi|^2 = 1.000
==== e(   2) =   -41.39451 eV ==== 
     psi = 0.991*[#   4]+0.006*[#   2]+
    |psi|^2 = 0.999
==== e(   3) =   -41.36379 eV ==== 
     psi = 0.643*[#   3]+0.337*[#   5]+0.010*[#   6]+0.005*[#   8]+0.002*[#  15]+
    |psi|^2 = 0.999
==== e(   4) =   -41.36379 eV ==== 
     psi = 0.643*[#   5]+0.337*[#   3]+0.010*[#   8]+0.005*[#   6]+0.002*[#  17]+
    |psi|^2 = 0.999
==== e(   5) =    -6.24345 eV ==== 
     psi = 0.611*[#  14]+0.188*[#   7]+0.182*[#   2]+0.015*[#   1]+0.001*[#   4]+
          +0.001*[#  12]+
    |psi|^2 = 1.000
==== e(   6) =     8.11713 eV ==== 
     psi = 0.538*[#  16]+0.284*[#  12]+0.095*[#   9]+0.042*[#   2]+0.027*[#  14]+
          +0.010*[#   7]+0.003*[#   1]+
    |psi|^2 = 0.998
==== e(   7) =     9.44788 eV ==== 
     psi = 0.427*[#  13]+0.378*[#  17]+0.092*[#  10]+0.081*[#  15]+0.017*[#   8]+
          +0.004*[#   6]+
    |psi|^2 = 0.998
==== e(   8) =     9.44788 eV ==== 
     psi = 0.427*[#  10]+0.378*[#  15]+0.092*[#  13]+0.081*[#  17]+0.017*[#   6]+
          +0.004*[#   8]+
    |psi|^2 = 0.998
==== e(   9) =     9.81755 eV ==== 
     psi = 0.998*[#  11]+
    |psi|^2 = 0.998
==== e(  10) =    10.29916 eV ==== 
     psi = 0.750*[#   9]+0.250*[#  12]+
    |psi|^2 = 0.999
==== e(  11) =    10.95486 eV ==== 
     psi = 0.427*[#  17]+0.395*[#  13]+0.089*[#  15]+0.082*[#  10]+0.004*[#   8]+
    |psi|^2 = 0.998
==== e(  12) =    10.95486 eV ==== 
     psi = 0.427*[#  15]+0.395*[#  10]+0.089*[#  17]+0.082*[#  13]+0.004*[#   6]+
    |psi|^2 = 0.998
==== e(  13) =    11.51195 eV ==== 
     psi = 0.449*[#  12]+0.245*[#  16]+0.150*[#   9]+0.069*[#  14]+0.069*[#   2]+
          +0.012*[#   7]+0.003*[#   1]+
    |psi|^2 = 0.996
==== e(  14) =    16.01343 eV ==== 
     psi = 0.313*[#   2]+0.278*[#  14]+0.209*[#  16]+0.159*[#   7]+0.015*[#  12]+
          +0.015*[#   1]+0.005*[#   9]+0.001*[#   4]+
    |psi|^2 = 0.995
==== e(  15) =    27.13962 eV ==== 
     psi = 0.002*[#  11]+
    |psi|^2 = 0.002

 k =   0.0772158179  0.0000000000  0.0000000000
==== e(   1) =   -75.62565 eV ==== 
     psi = 0.905*[#   1]+0.092*[#   7]+
    |psi|^2 = 1.000
==== e(   2) =   -41.38412 eV ==== 
     psi = 0.992*[#   4]+0.006*[#   2]+
    |psi|^2 = 0.998
==== e(   3) =   -41.35512 eV ==== 
     psi = 0.614*[#   3]+0.369*[#   5]+0.008*[#   6]+0.005*[#   8]+0.002*[#  15]+
          +0.001*[#  17]+
    |psi|^2 = 0.999
==== e(   4) =   -41.35512 eV ==== 
     psi = 0.614*[#   5]+0.369*[#   3]+0.008*[#   8]+0.005*[#   6]+0.002*[#  17]+
          +0.001*[#  15]+
    |psi|^2 = 0.999
==== e(   5) =    -6.12763 eV ==== 
     psi = 0.620*[#  14]+0.216*[#   7]+0.142*[#   2]+0.015*[#   1]+0.003*[#  12]+
          +0.002*[#   4]+
    |psi|^2 = 1.000
==== e(   6) =     7.65538 eV ==== 
     psi = 0.539*[#  16]+0.265*[#  12]+0.088*[#   9]+0.045*[#   2]+0.032*[#  14]+
          +0.024*[#   7]+0.005*[#   1]+
    |psi|^2 = 0.998
==== e(   7) =     9.34349 eV ==== 
     psi = 0.444*[#  15]+0.418*[#  10]+0.057*[#  17]+0.054*[#  13]+0.022*[#   6]+
          +0.003*[#   8]+
    |psi|^2 = 0.999
==== e(   8) =     9.34349 eV ==== 
     psi = 0.444*[#  17]+0.418*[#  13]+0.057*[#  15]+0.054*[#  10]+0.022*[#   8]+
          +0.003*[#   6]+
    |psi|^2 = 0.999
==== e(   9) =     9.74116 eV ==== 
     psi = 0.998*[#  11]+
    |psi|^2 = 0.998
==== e(  10) =    10.33074 eV ==== 
     psi = 0.750*[#   9]+0.250*[#  12]+
    |psi|^2 = 0.999
==== e(  11) =    11.10232 eV ==== 
     psi = 0.514*[#  10]+0.459*[#  15]+0.011*[#  13]+0.009*[#  17]+0.004*[#   6]+
    |psi|^2 = 0.998
==== e(  12) =    11.10232 eV ==== 
     psi = 0.514*[#  13]+0.459*[#  17]+0.011*[#  10]+0.009*[#  15]+0.004*[#   8]+
    |psi|^2 = 0.998
==== e(  13) =    11.63627 eV ==== 
     psi = 0.460*[#  12]+0.198*[#  16]+0.153*[#   9]+0.087*[#  14]+0.070*[#   2]+
          +0.023*[#   7]+0.004*[#   1]+
    |psi|^2 = 0.996
==== e(  14) =    16.70689 eV ==== 
     psi = 0.269*[#   2]+0.257*[#  16]+0.245*[#  14]+0.182*[#   7]+0.021*[#  12]+
          +0.013*[#   1]+0.007*[#   9]+0.002*[#   4]+
    |psi|^2 = 0.995
==== e(  15) =    26.63663 eV ==== 
     psi = 0.002*[#  11]+
    |psi|^2 = 0.002

 k =   0.0926589815  0.0000000000  0.0000000000
==== e(   1) =   -75.62470 eV ==== 
     psi = 0.905*[#   1]+0.091*[#   7]+0.003*[#   2]+
    |psi|^2 = 1.000
==== e(   2) =   -41.38600 eV ==== 
     psi = 0.991*[#   4]+0.005*[#   2]+0.001*[#   7]+
    |psi|^2 = 0.998
==== e(   3) =   -41.35727 eV ==== 
     psi = 0.606*[#   3]+0.379*[#   5]+0.006*[#   6]+0.004*[#   8]+0.002*[#  15]+
          +0.001*[#  17]+
    |psi|^2 = 0.998
==== e(   4) =   -41.35727 eV ==== 
     psi = 0.606*[#   5]+0.379*[#   3]+0.006*[#   8]+0.004*[#   6]+0.002*[#  17]+
          +0.001*[#  15]+
    |psi|^2 = 0.998
==== e(   5) =    -6.00310 eV ==== 
     psi = 0.637*[#  14]+0.227*[#   7]+0.113*[#   2]+0.013*[#   1]+0.005*[#  12]+
          +0.003*[#   4]+0.002*[#   9]+
    |psi|^2 = 1.000
==== e(   6) =     7.26794 eV ==== 
     psi = 0.540*[#  16]+0.248*[#  12]+0.083*[#   9]+0.045*[#   2]+0.043*[#   7]+
          +0.033*[#  14]+0.006*[#   1]+
    |psi|^2 = 0.998
==== e(   7) =     9.25750 eV ==== 
     psi = 0.316*[#  17]+0.247*[#  13]+0.227*[#  15]+0.177*[#  10]+0.018*[#   8]+
          +0.013*[#   6]+
    |psi|^2 = 0.999
==== e(   8) =     9.25750 eV ==== 
     psi = 0.316*[#  15]+0.247*[#  10]+0.227*[#  17]+0.177*[#  13]+0.018*[#   6]+
          +0.013*[#   8]+
    |psi|^2 = 0.999
==== e(   9) =     9.65555 eV ==== 
     psi = 0.997*[#  11]+
    |psi|^2 = 0.997
==== e(  10) =    10.36653 eV ==== 
     psi = 0.750*[#   9]+0.250*[#  12]+
    |psi|^2 = 0.999
==== e(  11) =    11.20949 eV ==== 
     psi = 0.455*[#  13]+0.335*[#  17]+0.117*[#  10]+0.086*[#  15]+0.004*[#   8]+
          +0.001*[#   6]+
    |psi|^2 = 0.998
==== e(  12) =    11.20949 eV ==== 
     psi = 0.455*[#  10]+0.335*[#  15]+0.117*[#  13]+0.086*[#  17]+0.004*[#   6]+
          +0.001*[#   8]+
    |psi|^2 = 0.998
==== e(  13) =    11.72031 eV ==== 
     psi = 0.471*[#  12]+0.165*[#  16]+0.157*[#   9]+0.099*[#  14]+0.065*[#   2]+
          +0.033*[#   7]+0.005*[#   1]+
    |psi|^2 = 0.995
==== e(  14) =    17.36558 eV ==== 
     psi = 0.289*[#  16]+0.249*[#   2]+0.214*[#  14]+0.196*[#   7]+0.025*[#  12]+
          +0.011*[#   1]+0.008*[#   9]+0.002*[#   4]+
    |psi|^2 = 0.995
==== e(  15) =    26.19320 eV ==== 
     psi = 0.003*[#  11]+
    |psi|^2 = 0.003

 k =   0.1081021450  0.0000000000  0.0000000000
==== e(   1) =   -75.62338 eV ==== 
     psi = 0.909*[#   1]+0.085*[#   7]+0.005*[#   2]+
    |psi|^2 = 1.000
==== e(   2) =   -41.38586 eV ==== 
     psi = 0.990*[#   4]+0.004*[#   2]+0.003*[#   7]+
    |psi|^2 = 0.998
==== e(   3) =   -41.35829 eV ==== 
     psi = 0.985*[#   5]+0.007*[#   8]+0.004*[#  17]+0.003*[#   3]+
    |psi|^2 = 0.998
==== e(   4) =   -41.35829 eV ==== 
     psi = 0.985*[#   3]+0.007*[#   6]+0.004*[#  15]+0.003*[#   5]+
    |psi|^2 = 0.998
==== e(   5) =    -5.87647 eV ==== 
     psi = 0.660*[#  14]+0.221*[#   7]+0.091*[#   2]+0.011*[#   1]+0.009*[#  12]+
          +0.004*[#   4]+0.003*[#   9]+
    |psi|^2 = 1.000
==== e(   6) =     6.97025 eV ==== 
     psi = 0.544*[#  16]+0.229*[#  12]+0.076*[#   9]+0.065*[#   7]+0.044*[#   2]+
          +0.031*[#  14]+0.007*[#   1]+0.002*[#   4]+
    |psi|^2 = 0.998
==== e(   7) =     9.20038 eV ==== 
     psi = 0.535*[#  17]+0.347*[#  13]+0.048*[#  15]+0.034*[#   8]+0.031*[#  10]+
          +0.003*[#   6]+0.001*[#   5]+
    |psi|^2 = 0.999
==== e(   8) =     9.20038 eV ==== 
     psi = 0.535*[#  15]+0.347*[#  10]+0.048*[#  17]+0.034*[#   6]+0.031*[#  13]+
          +0.003*[#   8]+0.001*[#   3]+
    |psi|^2 = 0.999
==== e(   9) =     9.56465 eV ==== 
     psi = 0.997*[#  11]+
    |psi|^2 = 0.997
==== e(  10) =    10.40501 eV ==== 
     psi = 0.750*[#   9]+0.250*[#  12]+
    |psi|^2 = 0.999
==== e(  11) =    11.28079 eV ==== 
     psi = 0.491*[#  10]+0.297*[#  15]+0.127*[#  13]+0.077*[#  17]+0.005*[#   6]+
          +0.001*[#   8]+
    |psi|^2 = 0.998
==== e(  12) =    11.28079 eV ==== 
     psi = 0.491*[#  13]+0.297*[#  17]+0.127*[#  10]+0.077*[#  15]+0.005*[#   8]+
          +0.001*[#   6]+
    |psi|^2 = 0.998
==== e(  13) =    11.76870 eV ==== 
     psi = 0.485*[#  12]+0.162*[#   9]+0.142*[#  16]+0.106*[#  14]+0.055*[#   2]+
          +0.040*[#   7]+0.005*[#   1]+
    |psi|^2 = 0.994
==== e(  14) =    17.98985 eV ==== 
     psi = 0.307*[#  16]+0.254*[#   2]+0.204*[#   7]+0.185*[#  14]+0.026*[#  12]+
          +0.009*[#   1]+0.009*[#   9]+0.002*[#   4]+
    |psi|^2 = 0.994
==== e(  15) =    25.80879 eV ==== 
     psi = 0.003*[#  11]+
    |psi|^2 = 0.003

 k =   0.1235453086  0.0000000000  0.0000000000
==== e(   1) =   -75.62403 eV ==== 
     psi = 0.918*[#   1]+0.075*[#   7]+0.006*[#   2]+
    |psi|^2 = 1.000
==== e(   2) =   -41.40055 eV ==== 
     psi = 0.988*[#   4]+0.006*[#   7]+0.003*[#   2]+
    |psi|^2 = 0.998
==== e(   3) =   -41.37116 eV ==== 
     psi = 0.702*[#   5]+0.287*[#   3]+0.004*[#   8]+0.003*[#  17]+0.002*[#   6]+
          +0.001*[#  15]+
    |psi|^2 = 0.998
==== e(   4) =   -41.37116 eV ==== 
     psi = 0.702*[#   3]+0.287*[#   5]+0.004*[#   6]+0.003*[#  15]+0.002*[#   8]+
          +0.001*[#  17]+
    |psi|^2 = 0.998
==== e(   5) =    -5.75345 eV ==== 
     psi = 0.690*[#  14]+0.203*[#   7]+0.074*[#   2]+0.014*[#  12]+0.009*[#   1]+
          +0.005*[#   9]+0.004*[#   4]+
    |psi|^2 = 1.000
==== e(   6) =     6.75326 eV ==== 
     psi = 0.553*[#  16]+0.207*[#  12]+0.089*[#   7]+0.069*[#   9]+0.043*[#   2]+
          +0.027*[#  14]+0.008*[#   1]+0.003*[#   4]+
    |psi|^2 = 0.998
==== e(   7) =     9.15708 eV ==== 
     psi = 0.594*[#  17]+0.310*[#  13]+0.041*[#   8]+0.033*[#  15]+0.017*[#  10]+
          +0.002*[#   6]+0.002*[#   5]+
    |psi|^2 = 0.999
==== e(   8) =     9.15708 eV ==== 
     psi = 0.594*[#  15]+0.310*[#  10]+0.041*[#   6]+0.033*[#  17]+0.017*[#  13]+
          +0.002*[#   8]+0.002*[#   3]+
    |psi|^2 = 0.999
==== e(   9) =     9.47253 eV ==== 
     psi = 0.996*[#  11]+
    |psi|^2 = 0.996
==== e(  10) =    10.44448 eV ==== 
     psi = 0.750*[#   9]+0.250*[#  12]+
    |psi|^2 = 0.999
==== e(  11) =    11.30477 eV ==== 
     psi = 0.549*[#  13]+0.264*[#  17]+0.121*[#  10]+0.058*[#  15]+0.005*[#   8]+
          +0.001*[#   6]+
    |psi|^2 = 0.999
==== e(  12) =    11.30477 eV ==== 
     psi = 0.549*[#  10]+0.264*[#  15]+0.121*[#  13]+0.058*[#  17]+0.005*[#   6]+
          +0.001*[#   8]+
    |psi|^2 = 0.999
==== e(  13) =    11.77166 eV ==== 
     psi = 0.503*[#  12]+0.168*[#   9]+0.122*[#  16]+0.108*[#  14]+0.044*[#   7]+
          +0.043*[#   2]+0.004*[#   1]+0.001*[#   4]+
    |psi|^2 = 0.993
==== e(  14) =    18.62098 eV ==== 
     psi = 0.309*[#  16]+0.283*[#   2]+0.203*[#   7]+0.156*[#  14]+0.025*[#  12]+
          +0.008*[#   9]+0.005*[#   1]+0.002*[#   4]+
    |psi|^2 = 0.992
==== e(  15) =    25.47926 eV ==== 
     psi = 0.003*[#  11]+
    |psi|^2 = 0.003

 k =   0.1389884722  0.0000000000  0.0000000000
==== e(   1) =   -75.62294 eV ==== 
     psi = 0.929*[#   1]+0.063*[#   7]+0.008*[#   2]+
    |psi|^2 = 1.000
==== e(   2) =   -41.40389 eV ==== 
     psi = 0.986*[#   4]+0.007*[#   7]+0.003*[#   2]+0.002*[#  16]+
    |psi|^2 = 0.998
==== e(   3) =   -41.37236 eV ==== 
     psi = 0.809*[#   3]+0.181*[#   5]+0.004*[#  15]+0.003*[#   6]+
    |psi|^2 = 0.998
==== e(   4) =   -41.37236 eV ==== 
     psi = 0.809*[#   5]+0.181*[#   3]+0.004*[#  17]+0.003*[#   8]+
    |psi|^2 = 0.998
==== e(   5) =    -5.64417 eV ==== 
     psi = 0.724*[#  14]+0.176*[#   7]+0.062*[#   2]+0.021*[#  12]+0.007*[#   9]+
          +0.006*[#   1]+0.004*[#   4]+
    |psi|^2 = 1.000
==== e(   6) =     6.65475 eV ==== 
     psi = 0.565*[#  16]+0.183*[#  12]+0.117*[#   7]+0.061*[#   9]+0.039*[#   2]+
          +0.021*[#  14]+0.008*[#   1]+0.005*[#   4]+
    |psi|^2 = 0.998
==== e(   7) =     9.15314 eV ==== 
     psi = 0.654*[#  17]+0.272*[#  13]+0.048*[#   8]+0.016*[#  15]+0.007*[#  10]+
          +0.002*[#   5]+0.001*[#   6]+
    |psi|^2 = 0.999
==== e(   8) =     9.15314 eV ==== 
     psi = 0.654*[#  15]+0.272*[#  10]+0.048*[#   6]+0.016*[#  17]+0.007*[#  13]+
          +0.002*[#   3]+0.001*[#   8]+
    |psi|^2 = 0.999
==== e(   9) =     9.38322 eV ==== 
     psi = 0.996*[#  11]+
    |psi|^2 = 0.996
==== e(  10) =    10.48327 eV ==== 
     psi = 0.750*[#   9]+0.250*[#  12]+
    |psi|^2 = 0.999
==== e(  11) =    11.30116 eV ==== 
     psi = 0.514*[#  10]+0.205*[#  13]+0.195*[#  15]+0.078*[#  17]+0.005*[#   6]+
          +0.002*[#   8]+
    |psi|^2 = 0.999
==== e(  12) =    11.30116 eV ==== 
     psi = 0.514*[#  13]+0.205*[#  10]+0.195*[#  17]+0.078*[#  15]+0.005*[#   8]+
          +0.002*[#   6]+
    |psi|^2 = 0.999
==== e(  13) =    11.74559 eV ==== 
     psi = 0.523*[#  12]+0.174*[#   9]+0.108*[#  14]+0.108*[#  16]+0.045*[#   7]+
          +0.030*[#   2]+0.004*[#   1]+0.001*[#   4]+
    |psi|^2 = 0.993
==== e(  14) =    19.09293 eV ==== 
     psi = 0.338*[#   2]+0.295*[#  16]+0.195*[#   7]+0.129*[#  14]+0.021*[#  12]+
          +0.007*[#   9]+0.003*[#   1]+0.002*[#   4]+
    |psi|^2 = 0.990
==== e(  15) =    25.20322 eV ==== 
     psi = 0.004*[#  11]+
    |psi|^2 = 0.004

 k =   0.1544316358  0.0000000000  0.0000000000
==== e(   1) =   -75.62804 eV ==== 
     psi = 0.941*[#   1]+0.050*[#   7]+0.008*[#   2]+
    |psi|^2 = 1.000
==== e(   2) =   -41.47082 eV ==== 
     psi = 0.985*[#   4]+0.008*[#   7]+0.003*[#  16]+0.002*[#   2]+
    |psi|^2 = 0.998
==== e(   3) =   -41.38026 eV ==== 
     psi = 0.635*[#   3]+0.356*[#   5]+0.003*[#  15]+0.002*[#   6]+0.002*[#  17]+
    |psi|^2 = 0.998
==== e(   4) =   -41.38026 eV ==== 
     psi = 0.635*[#   5]+0.356*[#   3]+0.003*[#  17]+0.002*[#   8]+0.002*[#  15]+
    |psi|^2 = 0.998
==== e(   5) =    -5.55104 eV ==== 
     psi = 0.759*[#  14]+0.142*[#   7]+0.052*[#   2]+0.030*[#  12]+0.010*[#   9]+
          +0.004*[#   1]+0.003*[#   4]+
    |psi|^2 = 0.999
==== e(   6) =     6.59789 eV ==== 
     psi = 0.586*[#  16]+0.153*[#  12]+0.148*[#   7]+0.051*[#   9]+0.032*[#   2]+
          +0.015*[#  14]+0.007*[#   4]+0.007*[#   1]+
    |psi|^2 = 0.999
==== e(   7) =     9.17172 eV ==== 
     psi = 0.596*[#  17]+0.188*[#  13]+0.121*[#  15]+0.045*[#   8]+0.038*[#  10]+
          +0.009*[#   6]+0.002*[#   5]+
    |psi|^2 = 0.999
==== e(   8) =     9.17172 eV ==== 
     psi = 0.596*[#  15]+0.188*[#  10]+0.121*[#  17]+0.045*[#   6]+0.038*[#  13]+
          +0.009*[#   8]+0.002*[#   3]+
    |psi|^2 = 0.999
==== e(   9) =     9.30051 eV ==== 
     psi = 0.995*[#  11]+
    |psi|^2 = 0.995
==== e(  10) =    10.51965 eV ==== 
     psi = 0.750*[#   9]+0.250*[#  12]+
    |psi|^2 = 0.999
==== e(  11) =    11.26625 eV ==== 
     psi = 0.710*[#  13]+0.202*[#  17]+0.063*[#  10]+0.018*[#  15]+0.006*[#   8]+
    |psi|^2 = 0.999
==== e(  12) =    11.26625 eV ==== 
     psi = 0.710*[#  10]+0.202*[#  15]+0.063*[#  13]+0.018*[#  17]+0.006*[#   6]+
    |psi|^2 = 0.999
==== e(  13) =    11.66539 eV ==== 
     psi = 0.549*[#  12]+0.183*[#   9]+0.104*[#  14]+0.093*[#  16]+0.043*[#   7]+
          +0.016*[#   2]+0.003*[#   1]+0.001*[#   4]+
    |psi|^2 = 0.993
==== e(  14) =    19.38707 eV ==== 
     psi = 0.443*[#   2]+0.253*[#  16]+0.168*[#   7]+0.103*[#  14]+0.016*[#  12]+
          +0.005*[#   9]+0.001*[#   4]+
    |psi|^2 = 0.989
==== e(  15) =    24.97636 eV ==== 
     psi = 0.004*[#  11]+
    |psi|^2 = 0.004

 k =   0.1698747994  0.0000000000  0.0000000000
==== e(   1) =   -75.62390 eV ==== 
     psi = 0.955*[#   1]+0.036*[#   7]+0.009*[#   2]+
    |psi|^2 = 1.000
==== e(   2) =   -41.44992 eV ==== 
     psi = 0.984*[#   4]+0.008*[#   7]+0.005*[#  16]+0.002*[#   2]+
    |psi|^2 = 0.998
==== e(   3) =   -41.37400 eV ==== 
     psi = 0.928*[#   3]+0.063*[#   5]+0.005*[#  15]+0.002*[#   6]+
    |psi|^2 = 0.998
==== e(   4) =   -41.37400 eV ==== 
     psi = 0.928*[#   5]+0.063*[#   3]+0.005*[#  17]+0.002*[#   8]+
    |psi|^2 = 0.998
==== e(   5) =    -5.47293 eV ==== 
     psi = 0.795*[#  14]+0.103*[#   7]+0.045*[#   2]+0.039*[#  12]+0.013*[#   9]+
          +0.002*[#   1]+0.002*[#   4]+
    |psi|^2 = 0.999
==== e(   6) =     6.70049 eV ==== 
     psi = 0.612*[#  16]+0.177*[#   7]+0.121*[#  12]+0.040*[#   9]+0.025*[#   2]+
          +0.009*[#   4]+0.009*[#  14]+0.006*[#   1]+
    |psi|^2 = 0.999
==== e(   7) =     9.21026 eV ==== 
     psi = 0.723*[#  17]+0.160*[#  13]+0.056*[#   8]+0.043*[#  15]+0.010*[#  10]+
          +0.003*[#   6]+0.003*[#   5]+
    |psi|^2 = 0.998
==== e(   8) =     9.21026 eV ==== 
     psi = 0.723*[#  15]+0.160*[#  10]+0.056*[#   6]+0.043*[#  17]+0.010*[#  13]+
          +0.003*[#   8]+0.003*[#   3]+
    |psi|^2 = 0.998
==== e(   9) =     9.22782 eV ==== 
     psi = 0.995*[#  11]+
    |psi|^2 = 0.995
==== e(  10) =    10.55200 eV ==== 
     psi = 0.750*[#   9]+0.250*[#  12]+
    |psi|^2 = 1.000
==== e(  11) =    11.20981 eV ==== 
     psi = 0.571*[#  13]+0.259*[#  10]+0.113*[#  17]+0.051*[#  15]+0.004*[#   8]+
          +0.002*[#   6]+
    |psi|^2 = 0.999
==== e(  12) =    11.20981 eV ==== 
     psi = 0.571*[#  10]+0.259*[#  13]+0.113*[#  15]+0.051*[#  17]+0.004*[#   6]+
          +0.002*[#   8]+
    |psi|^2 = 0.999
==== e(  13) =    11.55918 eV ==== 
     psi = 0.577*[#  12]+0.192*[#   9]+0.099*[#  14]+0.078*[#  16]+0.036*[#   7]+
          +0.007*[#   2]+0.002*[#   1]+0.001*[#   4]+
    |psi|^2 = 0.993
==== e(  14) =    19.63674 eV ==== 
     psi = 0.561*[#   2]+0.197*[#  16]+0.135*[#   7]+0.080*[#  14]+0.010*[#  12]+
          +0.003*[#   9]+
    |psi|^2 = 0.988
==== e(  15) =    24.62869 eV ==== 
     psi = 0.472*[#   7]+0.327*[#   2]+0.102*[#  16]+0.033*[#   1]+0.011*[#  14]+
          +0.002*[#  12]+
    |psi|^2 = 0.948

 k =   0.1853179629  0.0000000000  0.0000000000
==== e(   1) =   -75.63016 eV ==== 
     psi = 0.968*[#   1]+0.023*[#   7]+0.009*[#   2]+
    |psi|^2 = 1.000
==== e(   2) =   -41.47387 eV ==== 
     psi = 0.984*[#   4]+0.007*[#   7]+0.006*[#  16]+0.001*[#   2]+
    |psi|^2 = 0.998
==== e(   3) =   -41.40387 eV ==== 
     psi = 0.766*[#   5]+0.226*[#   3]+0.004*[#  17]+0.001*[#  15]+0.001*[#   8]+
    |psi|^2 = 0.998
==== e(   4) =   -41.40387 eV ==== 
     psi = 0.766*[#   3]+0.226*[#   5]+0.004*[#  15]+0.001*[#  17]+0.001*[#   6]+
    |psi|^2 = 0.998
==== e(   5) =    -5.41819 eV ==== 
     psi = 0.828*[#  14]+0.065*[#   7]+0.048*[#  12]+0.040*[#   2]+0.016*[#   9]+
          +0.001*[#   4]+0.001*[#   1]+
    |psi|^2 = 0.999
==== e(   6) =     6.81176 eV ==== 
     psi = 0.647*[#  16]+0.206*[#   7]+0.082*[#  12]+0.027*[#   9]+0.017*[#   2]+
          +0.011*[#   4]+0.005*[#  14]+0.004*[#   1]+
    |psi|^2 = 0.999
==== e(   7) =     9.16808 eV ==== 
     psi = 0.995*[#  11]+
    |psi|^2 = 0.995
==== e(   8) =     9.20663 eV ==== 
     psi = 0.551*[#  17]+0.272*[#  15]+0.071*[#  13]+0.044*[#   8]+0.035*[#  10]+
          +0.022*[#   6]+0.002*[#   5]+0.001*[#   3]+
    |psi|^2 = 0.999
==== e(   9) =     9.20663 eV ==== 
     psi = 0.551*[#  15]+0.272*[#  17]+0.071*[#  10]+0.044*[#   6]+0.035*[#  13]+
          +0.022*[#   8]+0.002*[#   3]+0.001*[#   5]+
    |psi|^2 = 0.999
==== e(  10) =    10.57869 eV ==== 
     psi = 0.750*[#   9]+0.250*[#  12]+
    |psi|^2 = 1.000
==== e(  11) =    11.13361 eV ==== 
     psi = 0.767*[#  10]+0.126*[#  13]+0.087*[#  15]+0.014*[#  17]+0.004*[#   6]+
    |psi|^2 = 0.999
==== e(  12) =    11.13361 eV ==== 
     psi = 0.767*[#  13]+0.126*[#  10]+0.087*[#  17]+0.014*[#  15]+0.004*[#   8]+
    |psi|^2 = 0.999
==== e(  13) =    11.41473 eV ==== 
     psi = 0.610*[#  12]+0.203*[#   9]+0.093*[#  14]+0.056*[#  16]+0.026*[#   7]+
          +0.002*[#   2]+0.001*[#   1]+
    |psi|^2 = 0.993
==== e(  14) =    19.77015 eV ==== 
     psi = 0.700*[#   2]+0.129*[#  16]+0.089*[#   7]+0.060*[#  14]+0.005*[#  12]+
          +0.002*[#   1]+0.002*[#   9]+
    |psi|^2 = 0.987
==== e(  15) =    24.04759 eV ==== 
     psi = 0.552*[#   7]+0.213*[#   2]+0.155*[#  16]+0.023*[#   1]+0.009*[#  14]+
          +0.002*[#  12]+
    |psi|^2 = 0.955

 k =   0.2007611265  0.0000000000  0.0000000000
==== e(   1) =   -75.62649 eV ==== 
     psi = 0.979*[#   1]+0.011*[#   7]+0.009*[#   2]+
    |psi|^2 = 1.000
==== e(   2) =   -41.44103 eV ==== 
     psi = 0.984*[#   4]+0.008*[#  16]+0.005*[#   7]+
    |psi|^2 = 0.998
==== e(   3) =   -41.40303 eV ==== 
     psi = 0.719*[#   5]+0.273*[#   3]+0.004*[#  17]+0.001*[#  15]+
    |psi|^2 = 0.998
==== e(   4) =   -41.40303 eV ==== 
     psi = 0.719*[#   3]+0.273*[#   5]+0.004*[#  15]+0.001*[#  17]+
    |psi|^2 = 0.998
==== e(   5) =    -5.38017 eV ==== 
     psi = 0.855*[#  14]+0.056*[#  12]+0.037*[#   2]+0.032*[#   7]+0.019*[#   9]+
    |psi|^2 = 0.999
==== e(   6) =     6.94349 eV ==== 
     psi = 0.684*[#  16]+0.232*[#   7]+0.043*[#  12]+0.014*[#   9]+0.012*[#   4]+
          +0.009*[#   2]+0.002*[#   1]+0.002*[#  14]+
    |psi|^2 = 0.999
==== e(   7) =     9.12369 eV ==== 
     psi = 0.995*[#  11]+
    |psi|^2 = 0.995
==== e(   8) =     9.25111 eV ==== 
     psi = 0.530*[#  17]+0.340*[#  15]+0.043*[#   8]+0.033*[#  13]+0.028*[#   6]+
          +0.021*[#  10]+0.002*[#   5]+0.001*[#   3]+
    |psi|^2 = 0.998
==== e(   9) =     9.25111 eV ==== 
     psi = 0.530*[#  15]+0.340*[#  17]+0.043*[#   6]+0.033*[#  10]+0.028*[#   8]+
          +0.021*[#  13]+0.002*[#   3]+0.001*[#   5]+
    |psi|^2 = 0.998
==== e(  10) =    10.59877 eV ==== 
     psi = 0.750*[#   9]+0.250*[#  12]+
    |psi|^2 = 1.000
==== e(  11) =    11.07135 eV ==== 
     psi = 0.895*[#  10]+0.051*[#  13]+0.048*[#  15]+0.003*[#  17]+0.002*[#   6]+
    |psi|^2 = 1.000
==== e(  12) =    11.07135 eV ==== 
     psi = 0.895*[#  13]+0.051*[#  10]+0.048*[#  17]+0.003*[#  15]+0.002*[#   8]+
    |psi|^2 = 1.000
==== e(  13) =    11.26924 eV ==== 
     psi = 0.644*[#  12]+0.215*[#   9]+0.088*[#  14]+0.031*[#  16]+0.015*[#   7]+
    |psi|^2 = 0.994
==== e(  14) =    19.86260 eV ==== 
     psi = 0.831*[#   2]+0.061*[#  16]+0.045*[#  14]+0.041*[#   7]+0.005*[#   1]+
          +0.002*[#  12]+
    |psi|^2 = 0.987
==== e(  15) =    23.82469 eV ==== 
     psi = 0.630*[#   7]+0.207*[#  16]+0.098*[#   2]+0.012*[#   1]+0.005*[#  14]+
          +0.002*[#  12]+
    |psi|^2 = 0.955

 k =   0.2162042901  0.0000000000  0.0000000000
==== e(   1) =   -75.63386 eV ==== 
     psi = 0.987*[#   1]+0.009*[#   2]+0.003*[#   7]+
    |psi|^2 = 1.000
==== e(   2) =   -41.48174 eV ==== 
     psi = 0.985*[#   4]+0.009*[#  16]+0.004*[#   7]+
    |psi|^2 = 0.998
==== e(   3) =   -41.43022 eV ==== 
     psi = 0.774*[#   3]+0.219*[#   5]+0.004*[#  15]+0.001*[#  17]+
    |psi|^2 = 0.999
==== e(   4) =   -41.43022 eV ==== 
     psi = 0.774*[#   5]+0.219*[#   3]+0.004*[#  17]+0.001*[#  15]+
    |psi|^2 = 0.999
==== e(   5) =    -5.35933 eV ==== 
     psi = 0.873*[#  14]+0.062*[#  12]+0.035*[#   2]+0.021*[#   9]+0.008*[#   7]+
    |psi|^2 = 0.999
==== e(   6) =     7.00544 eV ==== 
     psi = 0.714*[#  16]+0.253*[#   7]+0.013*[#   4]+0.012*[#  12]+0.004*[#   9]+
          +0.002*[#   2]+
    |psi|^2 = 1.000
==== e(   7) =     9.09636 eV ==== 
     psi = 0.995*[#  11]+
    |psi|^2 = 0.995
==== e(   8) =     9.28021 eV ==== 
     psi = 0.776*[#  17]+0.131*[#  15]+0.063*[#   8]+0.012*[#  13]+0.011*[#   6]+
          +0.003*[#   5]+0.002*[#  10]+
    |psi|^2 = 0.998
==== e(   9) =     9.28021 eV ==== 
     psi = 0.776*[#  15]+0.131*[#  17]+0.063*[#   6]+0.012*[#  10]+0.011*[#   8]+
          +0.003*[#   3]+0.002*[#  13]+
    |psi|^2 = 0.998
==== e(  10) =    10.61120 eV ==== 
     psi = 0.750*[#   9]+0.250*[#  12]+
    |psi|^2 = 1.000
==== e(  11) =    11.02633 eV ==== 
     psi = 0.980*[#  10]+0.014*[#  15]+0.006*[#  13]+
    |psi|^2 = 1.000
==== e(  12) =    11.02633 eV ==== 
     psi = 0.980*[#  13]+0.014*[#  17]+0.006*[#  10]+
    |psi|^2 = 1.000
==== e(  13) =    11.15639 eV ==== 
     psi = 0.672*[#  12]+0.224*[#   9]+0.084*[#  14]+0.009*[#  16]+0.004*[#   7]+
    |psi|^2 = 0.995
==== e(  14) =    19.81777 eV ==== 
     psi = 0.916*[#   2]+0.037*[#  14]+0.015*[#  16]+0.010*[#   7]+0.008*[#   1]+
    |psi|^2 = 0.987
==== e(  15) =    23.63160 eV ==== 
     psi = 0.685*[#   7]+0.242*[#  16]+0.025*[#   2]+0.003*[#   1]+0.002*[#  14]+
    |psi|^2 = 0.958

 k =   0.2316474537  0.0000000000  0.0000000000
==== e(   1) =   -75.63392 eV ==== 
     psi = 0.990*[#   1]+0.009*[#   2]+
    |psi|^2 = 1.000
==== e(   2) =   -41.48367 eV ==== 
     psi = 0.985*[#   4]+0.010*[#  16]+0.004*[#   7]+
    |psi|^2 = 0.998
==== e(   3) =   -41.43091 eV ==== 
     psi = 0.913*[#   5]+0.079*[#   3]+0.005*[#  17]+
    |psi|^2 = 0.999
==== e(   4) =   -41.43091 eV ==== 
     psi = 0.913*[#   3]+0.079*[#   5]+0.005*[#  15]+
    |psi|^2 = 0.999
==== e(   5) =    -5.35243 eV ==== 
     psi = 0.879*[#  14]+0.064*[#  12]+0.034*[#   2]+0.021*[#   9]+
    |psi|^2 = 0.999
==== e(   6) =     7.04316 eV ==== 
     psi = 0.726*[#  16]+0.260*[#   7]+0.013*[#   4]+
    |psi|^2 = 1.000
==== e(   7) =     9.08713 eV ==== 
     psi = 0.995*[#  11]+
    |psi|^2 = 0.995
==== e(   8) =     9.29177 eV ==== 
     psi = 0.790*[#  17]+0.130*[#  15]+0.064*[#   8]+0.011*[#   6]+0.003*[#   5]+
    |psi|^2 = 0.998
==== e(   9) =     9.29177 eV ==== 
     psi = 0.790*[#  15]+0.130*[#  17]+0.064*[#   6]+0.011*[#   8]+0.003*[#   3]+
    |psi|^2 = 0.998
==== e(  10) =    10.61541 eV ==== 
     psi = 0.750*[#   9]+0.250*[#  12]+
    |psi|^2 = 1.000
==== e(  11) =    11.00991 eV ==== 
     psi = 0.637*[#  13]+0.363*[#  10]+
    |psi|^2 = 1.000
==== e(  12) =    11.00991 eV ==== 
     psi = 0.637*[#  10]+0.363*[#  13]+
    |psi|^2 = 1.000
==== e(  13) =    11.11457 eV ==== 
     psi = 0.683*[#  12]+0.228*[#   9]+0.083*[#  14]+0.001*[#   2]+
    |psi|^2 = 0.995
==== e(  14) =    19.81823 eV ==== 
     psi = 0.943*[#   2]+0.034*[#  14]+0.009*[#   1]+
    |psi|^2 = 0.987
==== e(  15) =    23.58299 eV ==== 
     psi = 0.705*[#   7]+0.253*[#  16]+
    |psi|^2 = 0.958

 k =   0.2316474537  0.0000000000  0.0165462467
==== e(   1) =   -75.62717 eV ==== 
     psi = 0.990*[#   1]+0.009*[#   2]+
    |psi|^2 = 1.000
==== e(   2) =   -41.46991 eV ==== 
     psi = 0.985*[#   4]+0.010*[#  16]+0.004*[#   7]+
    |psi|^2 = 0.998
==== e(   3) =   -41.41291 eV ==== 
     psi = 0.992*[#   5]+0.005*[#  17]+
    |psi|^2 = 0.999
==== e(   4) =   -41.38252 eV ==== 
     psi = 0.992*[#   3]+0.005*[#  15]+0.001*[#   6]+
    |psi|^2 = 0.998
==== e(   5) =    -5.34419 eV ==== 
     psi = 0.879*[#  14]+0.064*[#  12]+0.033*[#   2]+0.020*[#   9]+0.003*[#   6]+
    |psi|^2 = 0.999
==== e(   6) =     7.07560 eV ==== 
     psi = 0.725*[#  16]+0.256*[#   7]+0.013*[#   4]+0.006*[#  10]+
    |psi|^2 = 1.000
==== e(   7) =     8.86937 eV ==== 
     psi = 0.616*[#  11]+0.343*[#  17]+0.035*[#   8]+0.002*[#   5]+
    |psi|^2 = 0.996
==== e(   8) =     9.11424 eV ==== 
     psi = 0.826*[#  15]+0.095*[#   9]+0.066*[#   6]+0.005*[#   2]+0.003*[#   3]+
          +0.001*[#  12]+0.002*[#  14]+
    |psi|^2 = 0.999
==== e(   9) =     9.51582 eV ==== 
     psi = 0.575*[#  17]+0.378*[#  11]+0.042*[#   8]+0.002*[#   5]+
    |psi|^2 = 0.997
==== e(  10) =    10.74257 eV ==== 
     psi = 0.542*[#   9]+0.386*[#  12]+0.063*[#  15]+0.006*[#   6]+0.003*[#  14]+
    |psi|^2 = 0.999
==== e(  11) =    11.00995 eV ==== 
     psi = 1.000*[#  13]+
    |psi|^2 = 1.000
==== e(  12) =    11.01392 eV ==== 
     psi = 0.994*[#  10]+0.005*[#  16]+
    |psi|^2 = 1.000
==== e(  13) =    11.15540 eV ==== 
     psi = 0.546*[#  12]+0.341*[#   9]+0.077*[#  14]+0.027*[#  15]+0.003*[#   2]+
          +0.001*[#   6]+
    |psi|^2 = 0.996
==== e(  14) =    19.92753 eV ==== 
     psi = 0.936*[#   2]+0.034*[#  14]+0.010*[#   1]+0.004*[#  15]+0.003*[#   6]+
    |psi|^2 = 0.987
==== e(  15) =    23.57812 eV ==== 
     psi = 0.707*[#   7]+0.250*[#  16]+
    |psi|^2 = 0.957

 k =   0.2316474537  0.0000000000  0.0330924934
==== e(   1) =   -75.62119 eV ==== 
     psi = 0.989*[#   1]+0.010*[#   2]+
    |psi|^2 = 1.000
==== e(   2) =   -41.44930 eV ==== 
     psi = 0.986*[#   4]+0.010*[#  16]+0.003*[#   7]+
    |psi|^2 = 0.998
==== e(   3) =   -41.39266 eV ==== 
     psi = 0.992*[#   5]+0.006*[#  17]+
    |psi|^2 = 0.998
==== e(   4) =   -41.35343 eV ==== 
     psi = 0.992*[#   3]+0.005*[#  15]+0.002*[#   6]+
    |psi|^2 = 0.998
==== e(   5) =    -5.32390 eV ==== 
     psi = 0.878*[#  14]+0.064*[#  12]+0.028*[#   2]+0.018*[#   9]+0.012*[#   6]+
    |psi|^2 = 0.999
==== e(   6) =     7.11751 eV ==== 
     psi = 0.719*[#  16]+0.246*[#   7]+0.022*[#  10]+0.012*[#   4]+
    |psi|^2 = 1.000
==== e(   7) =     8.58994 eV ==== 
     psi = 0.501*[#  11]+0.441*[#  17]+0.053*[#   8]+0.002*[#   5]+
    |psi|^2 = 0.997
==== e(   8) =     8.76433 eV ==== 
     psi = 0.715*[#  15]+0.213*[#   9]+0.048*[#   6]+0.015*[#   2]+0.003*[#  14]+
          +0.002*[#   3]+0.002*[#  12]+
    |psi|^2 = 0.999
==== e(   9) =     9.81512 eV ==== 
     psi = 0.493*[#  11]+0.473*[#  17]+0.030*[#   8]+0.002*[#   5]+
    |psi|^2 = 0.997
==== e(  10) =    10.90494 eV ==== 
     psi = 0.755*[#  12]+0.155*[#   9]+0.050*[#  15]+0.031*[#  14]+0.006*[#   6]+
    |psi|^2 = 0.998
==== e(  11) =    11.01006 eV ==== 
     psi = 1.000*[#  13]+
    |psi|^2 = 1.000
==== e(  12) =    11.02410 eV ==== 
     psi = 0.977*[#  10]+0.020*[#  16]+0.002*[#   7]+
    |psi|^2 = 1.000
==== e(  13) =    11.34626 eV ==== 
     psi = 0.613*[#   9]+0.176*[#  12]+0.146*[#  15]+0.044*[#  14]+0.010*[#   2]+
          +0.006*[#   6]+
    |psi|^2 = 0.997
==== e(  14) =    20.21080 eV ==== 
     psi = 0.916*[#   2]+0.031*[#  14]+0.017*[#  15]+0.011*[#   6]+0.010*[#   1]+
    |psi|^2 = 0.986
==== e(  15) =    23.58579 eV ==== 
     psi = 0.712*[#   7]+0.240*[#  16]+
    |psi|^2 = 0.952

 k =   0.2316474537  0.0000000000  0.0496387401
==== e(   1) =   -75.62464 eV ==== 
     psi = 0.988*[#   1]+0.010*[#   2]+0.001*[#  15]+
    |psi|^2 = 1.000
==== e(   2) =   -41.44925 eV ==== 
     psi = 0.987*[#   4]+0.010*[#  16]+0.002*[#   7]+
    |psi|^2 = 0.998
==== e(   3) =   -41.40578 eV ==== 
     psi = 0.991*[#   5]+0.006*[#  17]+0.001*[#   8]+
    |psi|^2 = 0.998
==== e(   4) =   -41.37595 eV ==== 
     psi = 0.991*[#   3]+0.004*[#  15]+0.003*[#   6]+
    |psi|^2 = 0.998
==== e(   5) =    -5.29606 eV ==== 
     psi = 0.876*[#  14]+0.063*[#  12]+0.025*[#   6]+0.021*[#   2]+0.013*[#   9]+
    |psi|^2 = 0.999
==== e(   6) =     7.14973 eV ==== 
     psi = 0.710*[#  16]+0.231*[#   7]+0.048*[#  10]+0.011*[#   4]+
    |psi|^2 = 1.000
==== e(   7) =     8.30743 eV ==== 
     psi = 0.661*[#  15]+0.268*[#   9]+0.035*[#   6]+0.029*[#   2]+0.003*[#  14]+
          +0.002*[#   3]+0.001*[#  12]+
    |psi|^2 = 0.999
==== e(   8) =     8.30764 eV ==== 
     psi = 0.501*[#  17]+0.424*[#  11]+0.070*[#   8]+0.003*[#   5]+
    |psi|^2 = 0.998
==== e(   9) =    10.08852 eV ==== 
     psi = 0.569*[#  11]+0.404*[#  17]+0.023*[#   8]+0.001*[#   5]+
    |psi|^2 = 0.997
==== e(  10) =    10.95754 eV ==== 
     psi = 0.887*[#  12]+0.049*[#  14]+0.039*[#   9]+0.018*[#  15]+0.004*[#   6]+
    |psi|^2 = 0.998
==== e(  11) =    11.01017 eV ==== 
     psi = 1.000*[#  13]+
    |psi|^2 = 1.000
==== e(  12) =    11.03373 eV ==== 
     psi = 0.950*[#  10]+0.045*[#  16]+0.005*[#   7]+
    |psi|^2 = 1.000
==== e(  13) =    11.62483 eV ==== 
     psi = 0.677*[#   9]+0.221*[#  15]+0.045*[#  12]+0.024*[#   2]+0.021*[#  14]+
          +0.008*[#   6]+
    |psi|^2 = 0.997
==== e(  14) =    20.56945 eV ==== 
     psi = 0.888*[#   2]+0.036*[#  15]+0.028*[#  14]+0.022*[#   6]+0.010*[#   1]+
    |psi|^2 = 0.985
==== e(  15) =    23.56448 eV ==== 
     psi = 0.720*[#   7]+0.224*[#  16]+0.002*[#  10]+
    |psi|^2 = 0.946

 k =   0.2316474537  0.0000000000  0.0661849868
==== e(   1) =   -75.62667 eV ==== 
     psi = 0.987*[#   1]+0.010*[#   2]+0.002*[#  15]+
    |psi|^2 = 1.000
==== e(   2) =   -41.44988 eV ==== 
     psi = 0.988*[#   4]+0.009*[#  16]+
    |psi|^2 = 0.998
==== e(   3) =   -41.41286 eV ==== 
     psi = 0.990*[#   3]+0.005*[#   6]+0.002*[#  15]+
    |psi|^2 = 0.998
==== e(   4) =   -41.39101 eV ==== 
     psi = 0.990*[#   5]+0.007*[#  17]+0.001*[#   8]+
    |psi|^2 = 0.998
==== e(   5) =    -5.26454 eV ==== 
     psi = 0.874*[#  14]+0.063*[#  12]+0.040*[#   6]+0.013*[#   2]+0.009*[#   9]+
    |psi|^2 = 0.999
==== e(   6) =     7.19537 eV ==== 
     psi = 0.696*[#  16]+0.211*[#   7]+0.082*[#  10]+0.010*[#   4]+
    |psi|^2 = 1.000
==== e(   7) =     7.93501 eV ==== 
     psi = 0.628*[#  15]+0.304*[#   9]+0.040*[#   2]+0.022*[#   6]+0.002*[#  14]+
    |psi|^2 = 0.999
==== e(   8) =     8.06213 eV ==== 
     psi = 0.541*[#  17]+0.367*[#  11]+0.086*[#   8]+0.004*[#   5]+
    |psi|^2 = 0.998
==== e(   9) =    10.34733 eV ==== 
     psi = 0.625*[#  11]+0.353*[#  17]+0.018*[#   8]+0.001*[#   5]+
    |psi|^2 = 0.997
==== e(  10) =    10.97779 eV ==== 
     psi = 0.919*[#  12]+0.055*[#  14]+0.012*[#   9]+0.007*[#  15]+0.004*[#   6]+
    |psi|^2 = 0.998
==== e(  11) =    11.01031 eV ==== 
     psi = 1.000*[#  13]+
    |psi|^2 = 1.000
==== e(  12) =    11.03388 eV ==== 
     psi = 0.914*[#  10]+0.077*[#  16]+0.008*[#   7]+
    |psi|^2 = 1.000
==== e(  13) =    11.89085 eV ==== 
     psi = 0.672*[#   9]+0.256*[#  15]+0.040*[#   2]+0.014*[#  12]+0.010*[#  14]+
          +0.005*[#   6]+
    |psi|^2 = 0.997
==== e(  14) =    21.00093 eV ==== 
     psi = 0.865*[#   2]+0.060*[#  15]+0.025*[#   6]+0.021*[#  14]+0.011*[#   1]+
          +0.002*[#   9]+
    |psi|^2 = 0.985
==== e(  15) =    23.54916 eV ==== 
     psi = 0.729*[#   7]+0.204*[#  16]+0.003*[#  10]+
    |psi|^2 = 0.937

 k =   0.2316474537  0.0000000000  0.0827312335
==== e(   1) =   -75.63382 eV ==== 
     psi = 0.986*[#   1]+0.011*[#   2]+0.003*[#  15]+
    |psi|^2 = 1.000
==== e(   2) =   -41.44991 eV ==== 
     psi = 0.989*[#   4]+0.009*[#  16]+
    |psi|^2 = 0.998
==== e(   3) =   -41.44587 eV ==== 
     psi = 0.989*[#   3]+0.006*[#   6]+0.001*[#  14]+0.001*[#  15]+
    |psi|^2 = 0.999
==== e(   4) =   -41.44087 eV ==== 
     psi = 0.990*[#   5]+0.007*[#  17]+
    |psi|^2 = 0.998
==== e(   5) =    -5.23693 eV ==== 
     psi = 0.872*[#  14]+0.063*[#  12]+0.054*[#   6]+0.006*[#   2]+0.004*[#   9]+
    |psi|^2 = 0.999
==== e(   6) =     7.26354 eV ==== 
     psi = 0.680*[#  16]+0.190*[#   7]+0.122*[#  10]+0.008*[#   4]+
    |psi|^2 = 1.000
==== e(   7) =     7.63277 eV ==== 
     psi = 0.612*[#  15]+0.323*[#   9]+0.051*[#   2]+0.010*[#   6]+0.001*[#  14]+
    |psi|^2 = 0.999
==== e(   8) =     7.80226 eV ==== 
     psi = 0.584*[#  17]+0.306*[#  11]+0.105*[#   8]+0.004*[#   5]+
    |psi|^2 = 0.999
==== e(   9) =    10.54943 eV ==== 
     psi = 0.686*[#  11]+0.295*[#  17]+0.016*[#   8]+
    |psi|^2 = 0.998
==== e(  10) =    10.98695 eV ==== 
     psi = 0.930*[#  12]+0.058*[#  14]+0.004*[#   9]+0.004*[#   6]+0.002*[#  15]+
    |psi|^2 = 0.998
==== e(  11) =    11.01043 eV ==== 
     psi = 1.000*[#  13]+
    |psi|^2 = 1.000
==== e(  12) =    11.01400 eV ==== 
     psi = 0.873*[#  10]+0.116*[#  16]+0.010*[#   7]+
    |psi|^2 = 0.999
==== e(  13) =    12.08047 eV ==== 
     psi = 0.663*[#   9]+0.268*[#  15]+0.055*[#   2]+0.005*[#  12]+0.004*[#  14]+
          +0.003*[#   6]+
    |psi|^2 = 0.997
==== e(  14) =    21.42798 eV ==== 
     psi = 0.849*[#   2]+0.087*[#  15]+0.019*[#   6]+0.012*[#   1]+0.012*[#  14]+
          +0.004*[#   9]+
    |psi|^2 = 0.984
==== e(  15) =    23.54532 eV ==== 
     psi = 0.735*[#   7]+0.181*[#  16]+0.004*[#  10]+0.001*[#   4]+
    |psi|^2 = 0.921

 k =   0.2316474537 -0.0000000000  0.0992774801
==== e(   1) =   -75.63079 eV ==== 
     psi = 0.985*[#   1]+0.011*[#   2]+0.003*[#  15]+
    |psi|^2 = 1.000
==== e(   2) =   -41.44326 eV ==== 
     psi = 0.989*[#   3]+0.008*[#   6]+0.002*[#  14]+
    |psi|^2 = 0.999
==== e(   3) =   -41.43741 eV ==== 
     psi = 0.989*[#   4]+0.009*[#  16]+
    |psi|^2 = 0.998
==== e(   4) =   -41.42118 eV ==== 
     psi = 0.990*[#   5]+0.008*[#  17]+
    |psi|^2 = 0.998
==== e(   5) =    -5.21731 eV ==== 
     psi = 0.870*[#  14]+0.063*[#   6]+0.063*[#  12]+0.002*[#   2]+0.001*[#   9]+
    |psi|^2 = 0.999
==== e(   6) =     7.36285 eV ==== 
     psi = 0.659*[#  16]+0.167*[#   7]+0.167*[#  10]+0.007*[#   4]+
    |psi|^2 = 0.999
==== e(   7) =     7.45367 eV ==== 
     psi = 0.602*[#  15]+0.336*[#   9]+0.057*[#   2]+0.003*[#   6]+
    |psi|^2 = 0.999
==== e(   8) =     7.64991 eV ==== 
     psi = 0.608*[#  17]+0.264*[#  11]+0.122*[#   8]+0.005*[#   5]+
    |psi|^2 = 0.999
==== e(   9) =    10.74477 eV ==== 
     psi = 0.728*[#  11]+0.255*[#  17]+0.015*[#   8]+
    |psi|^2 = 0.998
==== e(  10) =    10.96468 eV ==== 
     psi = 0.827*[#  10]+0.160*[#  16]+0.012*[#   7]+
    |psi|^2 = 0.999
==== e(  11) =    10.99192 eV ==== 
     psi = 0.934*[#  12]+0.058*[#  14]+0.004*[#   6]+
    |psi|^2 = 0.998
==== e(  12) =    11.01054 eV ==== 
     psi = 1.000*[#  13]+
    |psi|^2 = 1.000
==== e(  13) =    12.20179 eV ==== 
     psi = 0.656*[#   9]+0.273*[#  15]+0.065*[#   2]+
    |psi|^2 = 0.997
==== e(  14) =    21.82178 eV ==== 
     psi = 0.844*[#   2]+0.109*[#  15]+0.014*[#   1]+0.008*[#   6]+0.005*[#   9]+
          +0.004*[#  14]+
    |psi|^2 = 0.983
==== e(  15) =    23.58307 eV ==== 
     psi = 0.732*[#   7]+0.155*[#  16]+0.005*[#  10]+0.002*[#   4]+
    |psi|^2 = 0.895

 k =   0.2316474537 -0.0000000000  0.1158237268
==== e(   1) =   -75.62929 eV ==== 
     psi = 0.985*[#   1]+0.011*[#   2]+0.004*[#  15]+
    |psi|^2 = 1.000
==== e(   2) =   -41.42800 eV ==== 
     psi = 0.961*[#   4]+0.029*[#   5]+0.008*[#  16]+
    |psi|^2 = 0.998
==== e(   3) =   -41.42800 eV ==== 
     psi = 0.961*[#   5]+0.029*[#   4]+0.008*[#  17]+
    |psi|^2 = 0.998
==== e(   4) =   -41.42727 eV ==== 
     psi = 0.988*[#   3]+0.008*[#   6]+0.002*[#  14]+
    |psi|^2 = 0.998
==== e(   5) =    -5.20999 eV ==== 
     psi = 0.870*[#  14]+0.067*[#   6]+0.063*[#  12]+
    |psi|^2 = 0.999
==== e(   6) =     7.39675 eV ==== 
     psi = 0.599*[#  15]+0.340*[#   9]+0.060*[#   2]+
    |psi|^2 = 0.999
==== e(   7) =     7.49102 eV ==== 
     psi = 0.598*[#  17]+0.202*[#  11]+0.136*[#   8]+0.037*[#  16]+0.013*[#  10]+
          +0.008*[#   7]+0.005*[#   5]+
    |psi|^2 = 0.999
==== e(   8) =     7.49102 eV ==== 
     psi = 0.598*[#  16]+0.202*[#  10]+0.136*[#   7]+0.037*[#  17]+0.013*[#  11]+
          +0.008*[#   8]+0.005*[#   4]+
    |psi|^2 = 0.999
==== e(   9) =    10.87674 eV ==== 
     psi = 0.605*[#  10]+0.173*[#  11]+0.161*[#  16]+0.046*[#  17]+0.010*[#   7]+
          +0.003*[#   8]+
    |psi|^2 = 0.999
==== e(  10) =    10.87674 eV ==== 
     psi = 0.605*[#  11]+0.173*[#  10]+0.161*[#  17]+0.046*[#  16]+0.010*[#   8]+
          +0.003*[#   7]+
    |psi|^2 = 0.999
==== e(  11) =    10.99345 eV ==== 
     psi = 0.935*[#  12]+0.058*[#  14]+0.004*[#   6]+
    |psi|^2 = 0.998
==== e(  12) =    11.01057 eV ==== 
     psi = 1.000*[#  13]+
    |psi|^2 = 1.000
==== e(  13) =    12.24474 eV ==== 
     psi = 0.653*[#   9]+0.274*[#  15]+0.070*[#   2]+
    |psi|^2 = 0.997
==== e(  14) =    21.99488 eV ==== 
     psi = 0.843*[#   2]+0.119*[#  15]+0.014*[#   1]+0.006*[#   9]+
    |psi|^2 = 0.983
==== e(  15) =    23.64189 eV ==== 
     psi = 0.710*[#   7]+0.127*[#  16]+0.006*[#  10]+0.006*[#   8]+0.003*[#   4]+
          +0.001*[#  17]+
    |psi|^2 = 0.854

 k =   0.2200650810  0.0000000000  0.1274060995
==== e(   1) =   -75.63167 eV ==== 
     psi = 0.985*[#   1]+0.011*[#   2]+0.003*[#  15]+
    |psi|^2 = 1.000
==== e(   2) =   -41.44727 eV ==== 
     psi = 0.957*[#   4]+0.032*[#   3]+0.008*[#  16]+
    |psi|^2 = 0.998
==== e(   3) =   -41.43544 eV ==== 
     psi = 0.989*[#   5]+0.009*[#  17]+
    |psi|^2 = 0.998
==== e(   4) =   -41.42871 eV ==== 
     psi = 0.956*[#   3]+0.033*[#   4]+0.007*[#   6]+0.002*[#  14]+
    |psi|^2 = 0.998
==== e(   5) =    -5.21303 eV ==== 
     psi = 0.869*[#  14]+0.065*[#   6]+0.062*[#  12]+0.001*[#   7]+
    |psi|^2 = 0.999
==== e(   6) =     7.34038 eV ==== 
     psi = 0.446*[#  15]+0.217*[#   9]+0.162*[#  16]+0.080*[#  10]+0.054*[#   2]+
          +0.036*[#   7]+0.002*[#   6]+0.001*[#   4]+0.001*[#  12]+
    |psi|^2 = 0.999
==== e(   7) =     7.40087 eV ==== 
     psi = 0.651*[#  17]+0.180*[#  11]+0.159*[#   8]+0.007*[#   5]+0.003*[#  13]+
    |psi|^2 = 0.999
==== e(   8) =     7.62591 eV ==== 
     psi = 0.455*[#  16]+0.157*[#  10]+0.153*[#  15]+0.125*[#   9]+0.092*[#   7]+
          +0.007*[#   2]+0.006*[#  12]+0.004*[#   4]+
    |psi|^2 = 0.999
==== e(   9) =    10.72213 eV ==== 
     psi = 0.646*[#  10]+0.165*[#  16]+0.165*[#  12]+0.010*[#  14]+0.008*[#   7]+
          +0.002*[#  15]+0.001*[#   2]+
    |psi|^2 = 0.998
==== e(  10) =    10.91305 eV ==== 
     psi = 0.633*[#  11]+0.242*[#  13]+0.116*[#  17]+0.008*[#   8]+
    |psi|^2 = 0.999
==== e(  11) =    11.04373 eV ==== 
     psi = 0.756*[#  13]+0.180*[#  11]+0.059*[#  17]+0.004*[#   8]+
    |psi|^2 = 1.000
==== e(  12) =    11.07527 eV ==== 
     psi = 0.764*[#  12]+0.108*[#  10]+0.067*[#  16]+0.048*[#  14]+0.006*[#   7]+
          +0.003*[#   6]+
    |psi|^2 = 0.998
==== e(  13) =    12.24889 eV ==== 
     psi = 0.650*[#   9]+0.274*[#  15]+0.066*[#   2]+0.006*[#  16]+
    |psi|^2 = 0.997
==== e(  14) =    21.92955 eV ==== 
     psi = 0.842*[#   2]+0.114*[#  15]+0.014*[#   1]+0.006*[#   9]+0.003*[#   6]+
          +0.002*[#  16]+0.002*[#  14]+
    |psi|^2 = 0.983
==== e(  15) =    23.59605 eV ==== 
     psi = 0.730*[#   8]+0.146*[#  17]+0.006*[#  11]+0.003*[#   5]+
    |psi|^2 = 0.884

 k =   0.2084827083  0.0000000000  0.1389884722
==== e(   1) =   -75.62942 eV ==== 
     psi = 0.985*[#   1]+0.011*[#   2]+0.003*[#  15]+
    |psi|^2 = 1.000
==== e(   2) =   -41.44308 eV ==== 
     psi = 0.742*[#   3]+0.248*[#   4]+0.004*[#   6]+0.002*[#  16]+0.001*[#  14]+
    |psi|^2 = 0.998
==== e(   3) =   -41.44034 eV ==== 
     psi = 0.989*[#   5]+0.009*[#  17]+
    |psi|^2 = 0.998
==== e(   4) =   -41.39990 eV ==== 
     psi = 0.742*[#   4]+0.247*[#   3]+0.005*[#  16]+0.003*[#   6]+
    |psi|^2 = 0.998
==== e(   5) =    -5.21975 eV ==== 
     psi = 0.868*[#  14]+0.060*[#   6]+0.060*[#  12]+0.006*[#   7]+0.002*[#   2]+
          +0.002*[#   9]+
    |psi|^2 = 0.999
==== e(   6) =     7.27387 eV ==== 
     psi = 0.390*[#  15]+0.214*[#  16]+0.145*[#   9]+0.132*[#  10]+0.058*[#   2]+
          +0.043*[#   7]+0.007*[#  12]+0.006*[#   6]+0.002*[#   4]+
    |psi|^2 = 0.999
==== e(   7) =     7.33352 eV ==== 
     psi = 0.664*[#  17]+0.171*[#   8]+0.147*[#  11]+0.010*[#  13]+0.007*[#   5]+
    |psi|^2 = 0.999
==== e(   8) =     7.80620 eV ==== 
     psi = 0.378*[#  16]+0.207*[#  15]+0.205*[#   9]+0.114*[#  10]+0.065*[#   7]+
          +0.022*[#  12]+0.005*[#   2]+0.003*[#   4]+
    |psi|^2 = 0.999
==== e(   9) =    10.54482 eV ==== 
     psi = 0.637*[#  10]+0.196*[#  12]+0.137*[#  16]+0.012*[#  14]+0.007*[#  15]+
          +0.004*[#   7]+0.003*[#   2]+
    |psi|^2 = 0.998
==== e(  10) =    10.90458 eV ==== 
     psi = 0.502*[#  11]+0.445*[#  13]+0.048*[#  17]+0.003*[#   8]+
    |psi|^2 = 1.000
==== e(  11) =    11.10763 eV ==== 
     psi = 0.544*[#  13]+0.345*[#  11]+0.101*[#  17]+0.008*[#   8]+
    |psi|^2 = 0.999
==== e(  12) =    11.21361 eV ==== 
     psi = 0.711*[#  12]+0.109*[#  16]+0.107*[#  10]+0.046*[#  14]+0.009*[#   7]+
          +0.005*[#   9]+0.005*[#   2]+0.003*[#  15]+0.002*[#   6]+
    |psi|^2 = 0.998
==== e(  13) =    12.26727 eV ==== 
     psi = 0.637*[#   9]+0.272*[#  15]+0.051*[#   2]+0.028*[#  16]+0.004*[#   7]+
          +0.002*[#   6]+0.002*[#  12]+
    |psi|^2 = 0.997
==== e(  14) =    21.79753 eV ==== 
     psi = 0.844*[#   2]+0.098*[#  15]+0.013*[#   1]+0.011*[#   6]+0.006*[#  14]+
          +0.006*[#  16]+0.004*[#   9]+
    |psi|^2 = 0.983
==== e(  15) =    23.55414 eV ==== 
     psi = 0.598*[#   7]+0.086*[#  16]+0.072*[#   6]+0.015*[#  14]+0.008*[#  10]+
          +0.003*[#   4]+0.002*[#  15]+
    |psi|^2 = 0.785

 k =   0.1969003356  0.0000000000  0.1505708449
==== e(   1) =   -75.62943 eV ==== 
     psi = 0.986*[#   1]+0.010*[#   2]+0.003*[#  15]+
    |psi|^2 = 1.000
==== e(   2) =   -41.44408 eV ==== 
     psi = 0.726*[#   3]+0.266*[#   4]+0.003*[#   6]+0.002*[#  16]+0.001*[#  14]+
          +0.001*[#  15]+
    |psi|^2 = 0.998
==== e(   3) =   -41.44188 eV ==== 
     psi = 0.989*[#   5]+0.009*[#  17]+
    |psi|^2 = 0.998
==== e(   4) =   -41.39582 eV ==== 
     psi = 0.725*[#   4]+0.265*[#   3]+0.004*[#  16]+0.002*[#   6]+0.001*[#   7]+
    |psi|^2 = 0.998
==== e(   5) =    -5.22720 eV ==== 
     psi = 0.868*[#  14]+0.056*[#  12]+0.052*[#   6]+0.012*[#   7]+0.006*[#   9]+
          +0.004*[#   2]+
    |psi|^2 = 0.999
==== e(   6) =     7.22109 eV ==== 
     psi = 0.350*[#  15]+0.249*[#  16]+0.172*[#  10]+0.088*[#   9]+0.063*[#   2]+
          +0.043*[#   7]+0.017*[#  12]+0.014*[#   6]+0.002*[#   4]+
    |psi|^2 = 0.999
==== e(   7) =     7.28425 eV ==== 
     psi = 0.672*[#  17]+0.181*[#   8]+0.115*[#  11]+0.023*[#  13]+0.008*[#   5]+
    |psi|^2 = 1.000
==== e(   8) =     7.93886 eV ==== 
     psi = 0.330*[#  16]+0.265*[#   9]+0.244*[#  15]+0.062*[#  10]+0.045*[#   7]+
          +0.045*[#  12]+0.003*[#   6]+0.002*[#   2]+0.002*[#   4]+
    |psi|^2 = 0.999
==== e(   9) =    10.38174 eV ==== 
     psi = 0.671*[#  10]+0.179*[#  12]+0.111*[#  16]+0.017*[#  15]+0.012*[#  14]+
          +0.005*[#   2]+0.002*[#   7]+0.001*[#   9]+
    |psi|^2 = 0.998
==== e(  10) =    10.89193 eV ==== 
     psi = 0.502*[#  13]+0.478*[#  11]+0.019*[#  17]+0.001*[#   8]+
    |psi|^2 = 1.000
==== e(  11) =    11.15993 eV ==== 
     psi = 0.475*[#  13]+0.402*[#  11]+0.112*[#  17]+0.010*[#   8]+
    |psi|^2 = 0.999
==== e(  12) =    11.34557 eV ==== 
     psi = 0.683*[#  12]+0.119*[#  16]+0.084*[#  10]+0.046*[#  14]+0.028*[#   9]+
          +0.014*[#   2]+0.013*[#  15]+0.008*[#   7]+0.001*[#   6]+
    |psi|^2 = 0.997
==== e(  13) =    12.28492 eV ==== 
     psi = 0.608*[#   9]+0.261*[#  15]+0.067*[#  16]+0.030*[#   2]+0.017*[#  12]+
          +0.008*[#   7]+0.006*[#   6]+
    |psi|^2 = 0.998
==== e(  14) =    21.65472 eV ==== 
     psi = 0.842*[#   2]+0.077*[#  15]+0.018*[#   6]+0.013*[#   1]+0.012*[#  14]+
          +0.010*[#  16]+0.008*[#   7]+0.003*[#   9]+
    |psi|^2 = 0.983
==== e(  15) =    23.43110 eV ==== 
     psi = 0.502*[#   7]+0.139*[#   6]+0.067*[#  16]+0.024*[#  14]+0.010*[#   2]+
          +0.009*[#  10]+0.008*[#  15]+0.002*[#   4]+
    |psi|^2 = 0.764

 k =   0.1853179629  0.0000000000  0.1621532176
==== e(   1) =   -75.62907 eV ==== 
     psi = 0.986*[#   1]+0.010*[#   2]+0.002*[#  15]+0.001*[#  16]+
    |psi|^2 = 1.000
==== e(   2) =   -41.44815 eV ==== 
     psi = 0.989*[#   5]+0.009*[#  17]+
    |psi|^2 = 0.998
==== e(   3) =   -41.44145 eV ==== 
     psi = 0.615*[#   3]+0.377*[#   4]+0.002*[#  16]+0.001*[#  15]+0.001*[#   6]+
          +0.001*[#  14]+
    |psi|^2 = 0.998
==== e(   4) =   -41.38938 eV ==== 
     psi = 0.615*[#   4]+0.376*[#   3]+0.003*[#  16]+0.002*[#   6]+0.002*[#   7]+
    |psi|^2 = 0.998
==== e(   5) =    -5.23266 eV ==== 
     psi = 0.869*[#  14]+0.051*[#  12]+0.042*[#   6]+0.020*[#   7]+0.010*[#   9]+
          +0.006*[#   2]+
    |psi|^2 = 0.999
==== e(   6) =     7.18633 eV ==== 
     psi = 0.317*[#  15]+0.277*[#  16]+0.197*[#  10]+0.066*[#   2]+0.045*[#   9]+
          +0.039*[#   7]+0.033*[#  12]+0.022*[#   6]+0.001*[#   4]+
    |psi|^2 = 0.999
==== e(   7) =     7.24401 eV ==== 
     psi = 0.678*[#  17]+0.188*[#   8]+0.086*[#  11]+0.040*[#  13]+0.008*[#   5]+
    |psi|^2 = 1.000
==== e(   8) =     8.04780 eV ==== 
     psi = 0.302*[#   9]+0.298*[#  16]+0.270*[#  15]+0.072*[#  12]+0.028*[#   7]+
          +0.017*[#  10]+0.008*[#   6]+0.001*[#   4]+
    |psi|^2 = 0.999
==== e(   9) =    10.26645 eV ==== 
     psi = 0.707*[#  10]+0.146*[#  12]+0.082*[#  16]+0.032*[#  15]+0.012*[#  14]+
          +0.011*[#   9]+0.007*[#   2]+
    |psi|^2 = 0.998
==== e(  10) =    10.88319 eV ==== 
     psi = 0.509*[#  13]+0.486*[#  11]+0.004*[#  17]+
    |psi|^2 = 1.000
==== e(  11) =    11.19084 eV ==== 
     psi = 0.450*[#  13]+0.424*[#  11]+0.114*[#  17]+0.011*[#   8]+
    |psi|^2 = 0.999
==== e(  12) =    11.44005 eV ==== 
     psi = 0.629*[#  12]+0.102*[#  16]+0.086*[#   9]+0.067*[#  10]+0.047*[#  14]+
          +0.035*[#  15]+0.026*[#   2]+0.004*[#   7]+
    |psi|^2 = 0.997
==== e(  13) =    12.31452 eV ==== 
     psi = 0.544*[#   9]+0.235*[#  15]+0.123*[#  16]+0.064*[#  12]+0.012*[#   7]+
          +0.010*[#   6]+0.009*[#   2]+
    |psi|^2 = 0.998
==== e(  14) =    21.53715 eV ==== 
     psi = 0.836*[#   2]+0.054*[#  15]+0.023*[#   6]+0.019*[#   7]+0.019*[#  16]+
          +0.017*[#  14]+0.013*[#   1]+0.001*[#   9]+
    |psi|^2 = 0.982
==== e(  15) =    23.34074 eV ==== 
     psi = 0.398*[#   7]+0.217*[#   6]+0.050*[#  16]+0.030*[#  14]+0.022*[#   2]+
          +0.020*[#  15]+0.010*[#  10]+0.002*[#   4]+0.001*[#   3]+0.001*[#  12]+
    |psi|^2 = 0.751

 k =   0.1737355902  0.0000000000  0.1737355902
==== e(   1) =   -75.62648 eV ==== 
     psi = 0.986*[#   1]+0.010*[#   2]+0.002*[#  15]+0.002*[#  16]+
    |psi|^2 = 1.000
==== e(   2) =   -41.44097 eV ==== 
     psi = 0.496*[#   3]+0.496*[#   4]+0.002*[#  15]+0.002*[#  16]+0.001*[#  14]+
    |psi|^2 = 0.998
==== e(   3) =   -41.43857 eV ==== 
     psi = 0.988*[#   5]+0.009*[#  17]+
    |psi|^2 = 0.998
==== e(   4) =   -41.37046 eV ==== 
     psi = 0.496*[#   3]+0.496*[#   4]+0.002*[#   6]+0.002*[#   7]+0.002*[#  15]+
          +0.002*[#  16]+
    |psi|^2 = 0.998
==== e(   5) =    -5.23458 eV ==== 
     psi = 0.869*[#  14]+0.046*[#  12]+0.031*[#   6]+0.031*[#   7]+0.015*[#   9]+
          +0.006*[#   2]+
    |psi|^2 = 0.999
==== e(   6) =     7.17599 eV ==== 
     psi = 0.296*[#  15]+0.296*[#  16]+0.205*[#  10]+0.067*[#   2]+0.052*[#  12]+
          +0.031*[#   6]+0.031*[#   7]+0.017*[#   9]+
    |psi|^2 = 0.999
==== e(   7) =     7.24510 eV ==== 
     psi = 0.679*[#  17]+0.190*[#   8]+0.061*[#  11]+0.061*[#  13]+0.008*[#   5]+
    |psi|^2 = 1.000
==== e(   8) =     8.09449 eV ==== 
     psi = 0.299*[#   9]+0.283*[#  15]+0.283*[#  16]+0.100*[#  12]+0.017*[#   6]+
          +0.017*[#   7]+
    |psi|^2 = 0.999
==== e(   9) =    10.22474 eV ==== 
     psi = 0.722*[#  10]+0.111*[#  12]+0.054*[#  15]+0.054*[#  16]+0.037*[#   9]+
          +0.012*[#  14]+0.008*[#   2]+
    |psi|^2 = 0.998
==== e(  10) =    10.88031 eV ==== 
     psi = 0.500*[#  11]+0.500*[#  13]+
    |psi|^2 = 1.000
==== e(  11) =    11.20358 eV ==== 
     psi = 0.437*[#  11]+0.437*[#  13]+0.115*[#  17]+0.011*[#   8]+
    |psi|^2 = 0.999
==== e(  12) =    11.47520 eV ==== 
     psi = 0.538*[#  12]+0.179*[#   9]+0.069*[#  15]+0.069*[#  16]+0.062*[#  10]+
          +0.047*[#  14]+0.031*[#   2]+
    |psi|^2 = 0.996
==== e(  13) =    12.33286 eV ==== 
     psi = 0.451*[#   9]+0.186*[#  15]+0.186*[#  16]+0.150*[#  12]+0.012*[#   6]+
          +0.012*[#   7]+
    |psi|^2 = 0.998
==== e(  14) =    21.52267 eV ==== 
     psi = 0.834*[#   2]+0.034*[#  15]+0.034*[#  16]+0.024*[#   6]+0.024*[#   7]+
          +0.019*[#  14]+0.012*[#   1]+
    |psi|^2 = 0.981
==== e(  15) =    23.29909 eV ==== 
     psi = 0.304*[#   6]+0.304*[#   7]+0.034*[#  15]+0.034*[#  16]+0.032*[#  14]+
          +0.026*[#   2]+0.010*[#  10]+0.001*[#   3]+0.001*[#   4]+0.001*[#  12]+
    |psi|^2 = 0.748

 k =   0.1621532176  0.0000000000  0.1621532176
==== e(   1) =   -75.63187 eV ==== 
     psi = 0.984*[#   1]+0.010*[#   2]+0.002*[#  15]+0.002*[#  16]+
    |psi|^2 = 1.000
==== e(   2) =   -41.46473 eV ==== 
     psi = 0.497*[#   3]+0.497*[#   4]+0.001*[#  14]+0.001*[#  15]+0.001*[#  16]+
    |psi|^2 = 0.998
==== e(   3) =   -41.45037 eV ==== 
     psi = 0.989*[#   5]+0.009*[#  17]+
    |psi|^2 = 0.998
==== e(   4) =   -41.39311 eV ==== 
     psi = 0.495*[#   3]+0.495*[#   4]+0.003*[#   6]+0.003*[#   7]+0.001*[#  15]+
          +0.001*[#  16]+
    |psi|^2 = 0.998
==== e(   5) =    -5.21519 eV ==== 
     psi = 0.859*[#  14]+0.042*[#   6]+0.042*[#   7]+0.039*[#  12]+0.013*[#   9]+
          +0.002*[#   2]+
    |psi|^2 = 0.999
==== e(   6) =     6.81364 eV ==== 
     psi = 0.296*[#  15]+0.296*[#  16]+0.175*[#  10]+0.085*[#   2]+0.061*[#  12]+
          +0.032*[#   6]+0.032*[#   7]+0.020*[#   9]+0.002*[#   1]+
    |psi|^2 = 0.999
==== e(   7) =     7.29723 eV ==== 
     psi = 0.660*[#  17]+0.168*[#   8]+0.082*[#  11]+0.082*[#  13]+0.007*[#   5]+
    |psi|^2 = 1.000
==== e(   8) =     7.87555 eV ==== 
     psi = 0.319*[#   9]+0.273*[#  15]+0.273*[#  16]+0.106*[#  12]+0.014*[#   6]+
          +0.014*[#   7]+
    |psi|^2 = 0.999
==== e(   9) =    10.39531 eV ==== 
     psi = 0.713*[#  10]+0.146*[#  12]+0.049*[#   9]+0.037*[#  15]+0.037*[#  16]+
          +0.013*[#  14]+0.005*[#   2]+
    |psi|^2 = 0.998
==== e(  10) =    10.82504 eV ==== 
     psi = 0.500*[#  11]+0.500*[#  13]+
    |psi|^2 = 1.000
==== e(  11) =    11.26016 eV ==== 
     psi = 0.415*[#  11]+0.415*[#  13]+0.156*[#  17]+0.013*[#   8]+
    |psi|^2 = 0.999
==== e(  12) =    11.51999 eV ==== 
     psi = 0.500*[#  12]+0.167*[#   9]+0.099*[#  10]+0.074*[#  15]+0.074*[#  16]+
          +0.042*[#  14]+0.040*[#   2]+
    |psi|^2 = 0.997
==== e(  13) =    12.70283 eV ==== 
     psi = 0.430*[#   9]+0.201*[#  15]+0.201*[#  16]+0.143*[#  12]+0.011*[#   6]+
          +0.011*[#   7]+
    |psi|^2 = 0.997
==== e(  14) =    22.00028 eV ==== 
     psi = 0.844*[#   2]+0.058*[#  15]+0.058*[#  16]+0.014*[#   1]+0.005*[#  14]+
          +0.002*[#   6]+0.002*[#   7]+0.002*[#  12]+
    |psi|^2 = 0.983
==== e(  15) =    22.79144 eV ==== 
     psi = 0.352*[#   6]+0.352*[#   7]+0.061*[#  14]+0.027*[#  15]+0.027*[#  16]+
          +0.012*[#  10]+0.002*[#  12]+
    |psi|^2 = 0.835

 k =   0.1505708449  0.0000000000  0.1505708449
==== e(   1) =   -75.63218 eV ==== 
     psi = 0.980*[#   1]+0.009*[#   2]+0.003*[#   6]+0.003*[#   7]+0.002*[#  15]+
          +0.002*[#  16]+
    |psi|^2 = 1.000
==== e(   2) =   -41.46671 eV ==== 
     psi = 0.497*[#   3]+0.497*[#   4]+0.001*[#  14]+
    |psi|^2 = 0.998
==== e(   3) =   -41.44522 eV ==== 
     psi = 0.989*[#   5]+0.008*[#  17]+
    |psi|^2 = 0.998
==== e(   4) =   -41.39397 eV ==== 
     psi = 0.495*[#   3]+0.495*[#   4]+0.004*[#   6]+0.004*[#   7]+
    |psi|^2 = 0.998
==== e(   5) =    -5.21343 eV ==== 
     psi = 0.844*[#  14]+0.056*[#   6]+0.056*[#   7]+0.032*[#  12]+0.011*[#   9]+
    |psi|^2 = 0.999
==== e(   6) =     6.52399 eV ==== 
     psi = 0.293*[#  15]+0.293*[#  16]+0.154*[#  10]+0.098*[#   2]+0.069*[#  12]+
          +0.033*[#   6]+0.033*[#   7]+0.023*[#   9]+0.002*[#   1]+
    |psi|^2 = 0.999
==== e(   7) =     7.39685 eV ==== 
     psi = 0.638*[#  17]+0.145*[#   8]+0.105*[#  11]+0.105*[#  13]+0.006*[#   5]+
    |psi|^2 = 0.999
==== e(   8) =     7.70914 eV ==== 
     psi = 0.336*[#   9]+0.265*[#  15]+0.265*[#  16]+0.112*[#  12]+0.011*[#   6]+
          +0.011*[#   7]+
    |psi|^2 = 0.999
==== e(   9) =    10.54313 eV ==== 
     psi = 0.685*[#  10]+0.188*[#  12]+0.063*[#   9]+0.023*[#  15]+0.023*[#  16]+
          +0.014*[#  14]+0.002*[#   2]+
    |psi|^2 = 0.999
==== e(  10) =    10.76142 eV ==== 
     psi = 0.500*[#  11]+0.500*[#  13]+
    |psi|^2 = 1.000
==== e(  11) =    11.31556 eV ==== 
     psi = 0.391*[#  11]+0.391*[#  13]+0.202*[#  17]+0.014*[#   8]+
    |psi|^2 = 0.999
==== e(  12) =    11.54567 eV ==== 
     psi = 0.455*[#  12]+0.152*[#   9]+0.149*[#  10]+0.077*[#  15]+0.077*[#  16]+
          +0.046*[#   2]+0.038*[#  14]+0.001*[#   6]+0.001*[#   7]+
    |psi|^2 = 0.997
==== e(  13) =    13.02437 eV ==== 
     psi = 0.414*[#   9]+0.214*[#  15]+0.214*[#  16]+0.138*[#  12]+0.009*[#   6]+
          +0.009*[#   7]+
    |psi|^2 = 0.997
==== e(  14) =    21.99228 eV ==== 
     psi = 0.382*[#   2]+0.160*[#   6]+0.160*[#   7]+0.096*[#  15]+0.096*[#  16]+
          +0.035*[#  14]+0.006*[#  10]+0.005*[#  12]+0.002*[#   1]+0.002*[#   9]+
    |psi|^2 = 0.944
==== e(  15) =    22.80867 eV ==== 
     psi = 0.444*[#   2]+0.198*[#   6]+0.198*[#   7]+0.050*[#  14]+0.014*[#   1]+
          +0.005*[#  10]+0.003*[#  15]+0.003*[#  16]+
    |psi|^2 = 0.916

 k =   0.1389884722  0.0000000000  0.1389884722
==== e(   1) =   -75.63389 eV ==== 
     psi = 0.973*[#   1]+0.009*[#   2]+0.007*[#   6]+0.007*[#   7]+0.003*[#  15]+
          +0.003*[#  16]+
    |psi|^2 = 1.000
==== e(   2) =   -41.48440 eV ==== 
     psi = 0.496*[#   3]+0.496*[#   4]+0.001*[#  14]+
    |psi|^2 = 0.998
==== e(   3) =   -41.43867 eV ==== 
     psi = 0.989*[#   5]+0.008*[#  17]+0.001*[#   8]+
    |psi|^2 = 0.998
==== e(   4) =   -41.39673 eV ==== 
     psi = 0.494*[#   3]+0.494*[#   4]+0.005*[#   6]+0.005*[#   7]+
    |psi|^2 = 0.999
==== e(   5) =    -5.23691 eV ==== 
     psi = 0.820*[#  14]+0.070*[#   6]+0.070*[#   7]+0.025*[#  12]+0.008*[#   9]+
          +0.002*[#   2]+0.001*[#   3]+0.001*[#   4]+
    |psi|^2 = 0.999
==== e(   6) =     6.32393 eV ==== 
     psi = 0.289*[#  15]+0.289*[#  16]+0.138*[#  10]+0.107*[#   2]+0.076*[#  12]+
          +0.033*[#   6]+0.033*[#   7]+0.025*[#   9]+0.004*[#   1]+0.004*[#  14]+
    |psi|^2 = 0.999
==== e(   7) =     7.51778 eV ==== 
     psi = 0.613*[#  17]+0.129*[#  11]+0.129*[#  13]+0.124*[#   8]+0.005*[#   5]+
    |psi|^2 = 0.999
==== e(   8) =     7.59436 eV ==== 
     psi = 0.348*[#   9]+0.259*[#  15]+0.259*[#  16]+0.116*[#  12]+0.009*[#   6]+
          +0.009*[#   7]+
    |psi|^2 = 0.999
==== e(   9) =    10.65517 eV ==== 
     psi = 0.640*[#  10]+0.237*[#  12]+0.079*[#   9]+0.014*[#  14]+0.014*[#  15]+
          +0.014*[#  16]+
    |psi|^2 = 0.999
==== e(  10) =    10.69057 eV ==== 
     psi = 0.500*[#  11]+0.500*[#  13]+
    |psi|^2 = 1.000
==== e(  11) =    11.36000 eV ==== 
     psi = 0.368*[#  11]+0.368*[#  13]+0.249*[#  17]+0.015*[#   8]+
    |psi|^2 = 0.999
==== e(  12) =    11.55449 eV ==== 
     psi = 0.404*[#  12]+0.211*[#  10]+0.135*[#   9]+0.079*[#  15]+0.079*[#  16]+
          +0.051*[#   2]+0.035*[#  14]+0.002*[#   6]+0.002*[#   7]+
    |psi|^2 = 0.997
==== e(  13) =    13.27628 eV ==== 
     psi = 0.401*[#   9]+0.224*[#  15]+0.224*[#  16]+0.134*[#  12]+0.006*[#   6]+
          +0.006*[#   7]+
    |psi|^2 = 0.996
==== e(  14) =    21.37118 eV ==== 
     psi = 0.221*[#   6]+0.221*[#   7]+0.216*[#   2]+0.100*[#  15]+0.100*[#  16]+
          +0.077*[#  14]+0.007*[#  10]+0.006*[#  12]+0.002*[#   9]+
    |psi|^2 = 0.951
==== e(  15) =    23.38760 eV ==== 
     psi = 0.590*[#   2]+0.127*[#   6]+0.127*[#   7]+0.030*[#  14]+0.021*[#   1]+
          +0.014*[#  15]+0.014*[#  16]+0.003*[#  10]+
    |psi|^2 = 0.926

 k =   0.1274060995  0.0000000000  0.1274060995
==== e(   1) =   -75.62914 eV ==== 
     psi = 0.962*[#   1]+0.012*[#   6]+0.012*[#   7]+0.008*[#   2]+0.002*[#  15]+
          +0.002*[#  16]+
    |psi|^2 = 1.000
==== e(   2) =   -41.45207 eV ==== 
     psi = 0.495*[#   3]+0.495*[#   4]+0.002*[#   6]+0.002*[#   7]+0.001*[#   2]+
          +0.001*[#  14]+
    |psi|^2 = 0.998
==== e(   3) =   -41.41470 eV ==== 
     psi = 0.988*[#   5]+0.007*[#  17]+0.002*[#   8]+
    |psi|^2 = 0.998
==== e(   4) =   -41.38157 eV ==== 
     psi = 0.493*[#   3]+0.493*[#   4]+0.006*[#   6]+0.006*[#   7]+
    |psi|^2 = 0.999
==== e(   5) =    -5.28980 eV ==== 
     psi = 0.791*[#  14]+0.085*[#   6]+0.085*[#   7]+0.018*[#  12]+0.008*[#   2]+
          +0.006*[#   9]+0.002*[#   1]+0.002*[#   3]+0.002*[#   4]+
    |psi|^2 = 0.999
==== e(   6) =     6.21971 eV ==== 
     psi = 0.285*[#  15]+0.285*[#  16]+0.127*[#  10]+0.114*[#   2]+0.082*[#  12]+
          +0.031*[#   6]+0.031*[#   7]+0.027*[#   9]+0.010*[#  14]+0.005*[#   1]+
    |psi|^2 = 0.999
==== e(   7) =     7.54307 eV ==== 
     psi = 0.360*[#   9]+0.254*[#  15]+0.254*[#  16]+0.120*[#  12]+0.006*[#   6]+
          +0.006*[#   7]+
    |psi|^2 = 0.999
==== e(   8) =     7.66053 eV ==== 
     psi = 0.587*[#  17]+0.151*[#  11]+0.151*[#  13]+0.106*[#   8]+0.004*[#   5]+
    |psi|^2 = 0.999
==== e(   9) =    10.61389 eV ==== 
     psi = 0.500*[#  11]+0.500*[#  13]+
    |psi|^2 = 1.000
==== e(  10) =    10.72365 eV ==== 
     psi = 0.587*[#  10]+0.288*[#  12]+0.096*[#   9]+0.014*[#  14]+0.007*[#  15]+
          +0.007*[#  16]+
    |psi|^2 = 0.999
==== e(  11) =    11.38790 eV ==== 
     psi = 0.344*[#  11]+0.344*[#  13]+0.297*[#  17]+0.013*[#   8]+
    |psi|^2 = 0.999
==== e(  12) =    11.54393 eV ==== 
     psi = 0.353*[#  12]+0.279*[#  10]+0.118*[#   9]+0.078*[#  15]+0.078*[#  16]+
          +0.052*[#   2]+0.033*[#  14]+0.003*[#   6]+0.003*[#   7]+
    |psi|^2 = 0.997
==== e(  13) =    13.45778 eV ==== 
     psi = 0.389*[#   9]+0.234*[#  15]+0.234*[#  16]+0.130*[#  12]+0.004*[#   6]+
          +0.004*[#   7]+
    |psi|^2 = 0.995
==== e(  14) =    20.73670 eV ==== 
     psi = 0.222*[#   6]+0.222*[#   7]+0.173*[#   2]+0.111*[#  14]+0.109*[#  15]+
          +0.109*[#  16]+0.007*[#  12]+0.005*[#  10]+0.002*[#   9]+0.001*[#   1]+
    |psi|^2 = 0.964
==== e(  15) =    23.86465 eV ==== 
     psi = 0.740*[#   8]+0.093*[#  17]+0.007*[#   5]+0.004*[#  11]+0.004*[#  13]+
    |psi|^2 = 0.848

 k =   0.1158237268  0.0000000000  0.1158237268
==== e(   1) =   -75.62974 eV ==== 
     psi = 0.949*[#   1]+0.019*[#   6]+0.019*[#   7]+0.008*[#   2]+0.002*[#  15]+
          +0.002*[#  16]+
    |psi|^2 = 1.000
==== e(   2) =   -41.44870 eV ==== 
     psi = 0.494*[#   3]+0.494*[#   4]+0.004*[#   6]+0.004*[#   7]+0.002*[#   2]+
    |psi|^2 = 0.998
==== e(   3) =   -41.41074 eV ==== 
     psi = 0.988*[#   5]+0.006*[#  17]+0.004*[#   8]+
    |psi|^2 = 0.998
==== e(   4) =   -41.38168 eV ==== 
     psi = 0.493*[#   3]+0.493*[#   4]+0.007*[#   6]+0.007*[#   7]+
    |psi|^2 = 0.999
==== e(   5) =    -5.37231 eV ==== 
     psi = 0.758*[#  14]+0.099*[#   6]+0.099*[#   7]+0.017*[#   2]+0.013*[#  12]+
          +0.004*[#   9]+0.004*[#   1]+0.002*[#   3]+0.002*[#   4]+
    |psi|^2 = 0.999
==== e(   6) =     6.22869 eV ==== 
     psi = 0.283*[#  15]+0.283*[#  16]+0.120*[#  10]+0.115*[#   2]+0.088*[#  12]+
          +0.029*[#   9]+0.029*[#   6]+0.029*[#   7]+0.018*[#  14]+0.006*[#   1]+
    |psi|^2 = 0.999
==== e(   7) =     7.53857 eV ==== 
     psi = 0.368*[#   9]+0.250*[#  15]+0.250*[#  16]+0.123*[#  12]+0.004*[#   6]+
          +0.004*[#   7]+
    |psi|^2 = 0.999
==== e(   8) =     7.82495 eV ==== 
     psi = 0.561*[#  17]+0.173*[#  11]+0.173*[#  13]+0.090*[#   8]+0.003*[#   5]+
    |psi|^2 = 0.999
==== e(   9) =    10.53307 eV ==== 
     psi = 0.500*[#  11]+0.500*[#  13]+
    |psi|^2 = 0.999
==== e(  10) =    10.74683 eV ==== 
     psi = 0.536*[#  10]+0.332*[#  12]+0.111*[#   9]+0.013*[#  14]+0.003*[#  15]+
          +0.003*[#  16]+
    |psi|^2 = 0.999
==== e(  11) =    11.39520 eV ==== 
     psi = 0.341*[#  17]+0.322*[#  11]+0.322*[#  13]+0.012*[#   8]+
    |psi|^2 = 0.999
==== e(  12) =    11.51611 eV ==== 
     psi = 0.340*[#  10]+0.308*[#  12]+0.103*[#   9]+0.076*[#  15]+0.076*[#  16]+
          +0.051*[#   2]+0.034*[#  14]+0.004*[#   6]+0.004*[#   7]+
    |psi|^2 = 0.997
==== e(  13) =    13.53164 eV ==== 
     psi = 0.381*[#   9]+0.242*[#  15]+0.242*[#  16]+0.127*[#  12]+0.002*[#   6]+
          +0.002*[#   7]+
    |psi|^2 = 0.995
==== e(  14) =    20.08543 eV ==== 
     psi = 0.205*[#   6]+0.205*[#   7]+0.162*[#   2]+0.141*[#  14]+0.119*[#  15]+
          +0.119*[#  16]+0.008*[#  12]+0.004*[#   1]+0.003*[#  10]+0.003*[#   9]+
          +0.002*[#   3]+0.002*[#   4]+
    |psi|^2 = 0.973
==== e(  15) =    24.05761 eV ==== 
     psi = 0.724*[#   8]+0.075*[#  17]+0.008*[#   5]+0.004*[#  11]+0.004*[#  13]+
    |psi|^2 = 0.814

 k =   0.1042413541  0.0000000000  0.1042413541
==== e(   1) =   -75.62528 eV ==== 
     psi = 0.935*[#   1]+0.026*[#   6]+0.026*[#   7]+0.008*[#   2]+0.002*[#  15]+
          +0.002*[#  16]+
    |psi|^2 = 1.000
==== e(   2) =   -41.43098 eV ==== 
     psi = 0.493*[#   3]+0.493*[#   4]+0.004*[#   6]+0.004*[#   7]+0.002*[#   2]+
    |psi|^2 = 0.998
==== e(   3) =   -41.38239 eV ==== 
     psi = 0.987*[#   5]+0.006*[#  17]+0.005*[#   8]+
    |psi|^2 = 0.998
==== e(   4) =   -41.36235 eV ==== 
     psi = 0.492*[#   3]+0.492*[#   4]+0.007*[#   6]+0.007*[#   7]+
    |psi|^2 = 0.999
==== e(   5) =    -5.48230 eV ==== 
     psi = 0.724*[#  14]+0.112*[#   6]+0.112*[#   7]+0.030*[#   2]+0.008*[#  12]+
          +0.006*[#   1]+0.003*[#   3]+0.003*[#   4]+0.003*[#   9]+
    |psi|^2 = 1.000
==== e(   6) =     6.36043 eV ==== 
     psi = 0.281*[#  15]+0.281*[#  16]+0.116*[#  10]+0.112*[#   2]+0.092*[#  12]+
          +0.031*[#   9]+0.028*[#  14]+0.025*[#   6]+0.025*[#   7]+0.006*[#   1]+
    |psi|^2 = 0.999
==== e(   7) =     7.59733 eV ==== 
     psi = 0.376*[#   9]+0.247*[#  15]+0.247*[#  16]+0.125*[#  12]+0.002*[#   6]+
          +0.002*[#   7]+
    |psi|^2 = 0.999
==== e(   8) =     8.04279 eV ==== 
     psi = 0.530*[#  17]+0.196*[#  11]+0.196*[#  13]+0.074*[#   8]+0.002*[#   5]+
    |psi|^2 = 0.999
==== e(   9) =    10.45010 eV ==== 
     psi = 0.500*[#  11]+0.500*[#  13]+
    |psi|^2 = 0.999
==== e(  10) =    10.72950 eV ==== 
     psi = 0.503*[#  10]+0.360*[#  12]+0.120*[#   9]+0.011*[#  14]+0.002*[#   2]+
          +0.001*[#  15]+0.001*[#  16]+
    |psi|^2 = 1.000
==== e(  11) =    11.39975 eV ==== 
     psi = 0.390*[#  17]+0.299*[#  11]+0.299*[#  13]+0.010*[#   8]+
    |psi|^2 = 0.998
==== e(  12) =    11.47092 eV ==== 
     psi = 0.379*[#  10]+0.279*[#  12]+0.093*[#   9]+0.075*[#  15]+0.075*[#  16]+
          +0.049*[#   2]+0.036*[#  14]+0.006*[#   6]+0.006*[#   7]+
    |psi|^2 = 0.998
==== e(  13) =    13.51766 eV ==== 
     psi = 0.373*[#   9]+0.248*[#  15]+0.248*[#  16]+0.124*[#  12]+
    |psi|^2 = 0.994
==== e(  14) =    19.43488 eV ==== 
     psi = 0.185*[#   6]+0.185*[#   7]+0.169*[#  14]+0.162*[#   2]+0.127*[#  15]+
          +0.127*[#  16]+0.009*[#  12]+0.007*[#   1]+0.003*[#   9]+0.002*[#   3]+
          +0.002*[#   4]+0.001*[#  10]+
    |psi|^2 = 0.981
==== e(  15) =    24.32547 eV ==== 
     psi = 0.694*[#   8]+0.057*[#  17]+0.009*[#   5]+0.004*[#  11]+0.004*[#  13]+
    |psi|^2 = 0.768

 k =   0.0926589815  0.0000000000  0.0926589815
==== e(   1) =   -75.62483 eV ==== 
     psi = 0.922*[#   1]+0.033*[#   6]+0.033*[#   7]+0.007*[#   2]+0.002*[#  15]+
          +0.002*[#  16]+
    |psi|^2 = 1.000
==== e(   2) =   -41.41255 eV ==== 
     psi = 0.493*[#   3]+0.493*[#   4]+0.004*[#   6]+0.004*[#   7]+0.002*[#   2]+
    |psi|^2 = 0.998
==== e(   3) =   -41.38281 eV ==== 
     psi = 0.986*[#   5]+0.007*[#   8]+0.005*[#  17]+
    |psi|^2 = 0.998
==== e(   4) =   -41.35794 eV ==== 
     psi = 0.491*[#   3]+0.491*[#   4]+0.008*[#   6]+0.008*[#   7]+
    |psi|^2 = 0.999
==== e(   5) =    -5.62244 eV ==== 
     psi = 0.690*[#  14]+0.121*[#   6]+0.121*[#   7]+0.046*[#   2]+0.009*[#   1]+
          +0.005*[#  12]+0.003*[#   3]+0.003*[#   4]+0.002*[#   9]+
    |psi|^2 = 1.000
==== e(   6) =     6.56737 eV ==== 
     psi = 0.281*[#  15]+0.281*[#  16]+0.115*[#  10]+0.110*[#   2]+0.095*[#  12]+
          +0.037*[#  14]+0.032*[#   9]+0.020*[#   6]+0.020*[#   7]+0.006*[#   1]+
    |psi|^2 = 0.999
==== e(   7) =     7.70865 eV ==== 
     psi = 0.381*[#   9]+0.244*[#  15]+0.244*[#  16]+0.127*[#  12]+0.001*[#   6]+
          +0.001*[#   7]+
    |psi|^2 = 0.999
==== e(   8) =     8.24270 eV ==== 
     psi = 0.506*[#  17]+0.215*[#  11]+0.215*[#  13]+0.062*[#   8]+0.002*[#   5]+
    |psi|^2 = 0.999
==== e(   9) =    10.36716 eV ==== 
     psi = 0.500*[#  11]+0.500*[#  13]+
    |psi|^2 = 0.999
==== e(  10) =    10.67935 eV ==== 
     psi = 0.494*[#  10]+0.370*[#  12]+0.123*[#   9]+0.009*[#  14]+0.003*[#   2]+
    |psi|^2 = 1.000
==== e(  11) =    11.35569 eV ==== 
     psi = 0.429*[#  17]+0.280*[#  11]+0.280*[#  13]+0.009*[#   8]+
    |psi|^2 = 0.998
==== e(  12) =    11.38670 eV ==== 
     psi = 0.391*[#  10]+0.269*[#  12]+0.090*[#   9]+0.073*[#  15]+0.073*[#  16]+
          +0.048*[#   2]+0.039*[#  14]+0.007*[#   6]+0.007*[#   7]+0.001*[#   1]+
    |psi|^2 = 0.998
==== e(  13) =    13.40083 eV ==== 
     psi = 0.367*[#   9]+0.252*[#  15]+0.252*[#  16]+0.122*[#  12]+
    |psi|^2 = 0.994
==== e(  14) =    18.78016 eV ==== 
     psi = 0.197*[#  14]+0.169*[#   6]+0.169*[#   7]+0.163*[#   2]+0.130*[#  15]+
          +0.130*[#  16]+0.011*[#   1]+0.009*[#  12]+0.003*[#   9]+0.003*[#   3]+
          +0.003*[#   4]+
    |psi|^2 = 0.986
==== e(  15) =    24.66471 eV ==== 
     psi = 0.653*[#   8]+0.043*[#  17]+0.009*[#   5]+0.004*[#  11]+0.004*[#  13]+
    |psi|^2 = 0.714

 k =   0.0810766088  0.0000000000  0.0810766088
==== e(   1) =   -75.62699 eV ==== 
     psi = 0.912*[#   1]+0.040*[#   6]+0.040*[#   7]+0.005*[#   2]+0.001*[#  15]+
          +0.001*[#  16]+
    |psi|^2 = 1.000
==== e(   2) =   -41.42095 eV ==== 
     psi = 0.494*[#   3]+0.494*[#   4]+0.003*[#   6]+0.003*[#   7]+0.003*[#   2]+
    |psi|^2 = 0.998
==== e(   3) =   -41.37200 eV ==== 
     psi = 0.985*[#   5]+0.008*[#   8]+0.004*[#  17]+
    |psi|^2 = 0.998
==== e(   4) =   -41.35748 eV ==== 
     psi = 0.490*[#   3]+0.490*[#   4]+0.009*[#   6]+0.009*[#   7]+
    |psi|^2 = 0.999
==== e(   5) =    -5.77279 eV ==== 
     psi = 0.660*[#  14]+0.126*[#   6]+0.126*[#   7]+0.066*[#   2]+0.011*[#   1]+
          +0.003*[#  12]+0.003*[#   3]+0.003*[#   4]+0.001*[#   9]+
    |psi|^2 = 1.000
==== e(   6) =     6.90353 eV ==== 
     psi = 0.283*[#  15]+0.283*[#  16]+0.116*[#  10]+0.103*[#   2]+0.100*[#  12]+
          +0.044*[#  14]+0.033*[#   9]+0.015*[#   6]+0.015*[#   7]+0.006*[#   1]+
    |psi|^2 = 0.999
==== e(   7) =     7.87248 eV ==== 
     psi = 0.385*[#   9]+0.242*[#  15]+0.242*[#  16]+0.128*[#  12]+
    |psi|^2 = 0.999
==== e(   8) =     8.46914 eV ==== 
     psi = 0.481*[#  17]+0.233*[#  11]+0.233*[#  13]+0.051*[#   8]+0.001*[#   5]+
    |psi|^2 = 0.999
==== e(   9) =    10.28658 eV ==== 
     psi = 0.500*[#  11]+0.500*[#  13]+
    |psi|^2 = 0.999
[...]
          +0.003*[#  13]+
    |psi|^2 = 0.968

 k =   0.1415623328  0.0643465149  0.1415623328
==== e(   1) =   -71.87755 eV ==== 
     psi = 0.983*[#   1]+0.005*[#   2]+0.003*[#  15]+0.003*[#  16]+0.002*[#   8]+
          +0.002*[#  17]+
    |psi|^2 = 1.000
==== e(   2) =   -37.83889 eV ==== 
     psi = 0.352*[#   3]+0.352*[#   4]+0.282*[#   5]+0.004*[#   8]+0.003*[#   6]+
          +0.003*[#   7]+0.001*[#  14]+
    |psi|^2 = 0.998
==== e(   3) =   -37.76708 eV ==== 
     psi = 0.706*[#   5]+0.142*[#   3]+0.142*[#   4]+0.003*[#  17]+0.002*[#   8]+
    |psi|^2 = 0.998
==== e(   4) =   -37.74348 eV ==== 
     psi = 0.495*[#   3]+0.495*[#   4]+0.003*[#   6]+0.003*[#   7]+
    |psi|^2 = 0.998
==== e(   5) =    -4.58425 eV ==== 
     psi = 0.804*[#  14]+0.065*[#   6]+0.065*[#   7]+0.043*[#   8]+0.012*[#  12]+
          +0.004*[#   9]+0.002*[#   3]+0.002*[#   4]+0.002*[#   5]+
    |psi|^2 = 0.999
==== e(   6) =     6.64357 eV ==== 
     psi = 0.222*[#  15]+0.222*[#  16]+0.203*[#  17]+0.167*[#   2]+0.050*[#  10]+
          +0.036*[#   8]+0.036*[#  11]+0.036*[#  13]+0.010*[#   6]+0.010*[#   7]+
          +0.004*[#   1]+0.001*[#  12]+
    |psi|^2 = 0.999
==== e(   7) =     8.66276 eV ==== 
     psi = 0.470*[#  17]+0.138*[#  12]+0.108*[#  15]+0.108*[#  16]+0.050*[#   8]+
          +0.046*[#   9]+0.033*[#  10]+0.013*[#  11]+0.013*[#  13]+0.006*[#   6]+
          +0.006*[#   7]+0.002*[#   5]+
    |psi|^2 = 0.997
==== e(   8) =     8.96415 eV ==== 
     psi = 0.346*[#  15]+0.346*[#  16]+0.195*[#   9]+0.065*[#  12]+0.014*[#  11]+
          +0.014*[#  13]+0.008*[#   6]+0.008*[#   7]+
    |psi|^2 = 0.997
==== e(   9) =    13.67889 eV ==== 
     psi = 0.799*[#  10]+0.047*[#  12]+0.040*[#  11]+0.040*[#  13]+0.018*[#  15]+
          +0.018*[#  16]+0.016*[#   9]+0.006*[#  14]+0.004*[#   6]+0.004*[#   7]+
          +0.002*[#  17]+0.001*[#   2]+0.001*[#   8]+
    |psi|^2 = 0.996
==== e(  10) =    13.94971 eV ==== 
     psi = 0.481*[#  11]+0.481*[#  13]+0.020*[#   9]+0.007*[#  12]+0.005*[#  15]+
          +0.005*[#  16]+
    |psi|^2 = 0.999
==== e(  11) =    14.14978 eV ==== 
     psi = 0.392*[#  11]+0.392*[#  13]+0.075*[#  10]+0.059*[#  17]+0.028*[#  15]+
          +0.028*[#  16]+0.010*[#   2]+0.010*[#  12]+0.003*[#   9]+
    |psi|^2 = 0.999
==== e(  12) =    15.61017 eV ==== 
     psi = 0.528*[#  12]+0.176*[#   9]+0.120*[#  17]+0.034*[#  14]+0.033*[#  15]+
          +0.033*[#  16]+0.021*[#  10]+0.019*[#   8]+0.010*[#  11]+0.010*[#  13]+
          +0.004*[#   6]+0.004*[#   7]+0.003*[#   2]+
    |psi|^2 = 0.997
==== e(  13) =    16.09805 eV ==== 
     psi = 0.534*[#   9]+0.178*[#  12]+0.136*[#  15]+0.136*[#  16]+0.004*[#  11]+
          +0.004*[#  13]+0.003*[#   6]+0.003*[#   7]+
    |psi|^2 = 0.998
==== e(  14) =    21.22887 eV ==== 
     psi = 0.225*[#   8]+0.223*[#   6]+0.223*[#   7]+0.130*[#  14]+0.052*[#  17]+
          +0.013*[#  12]+0.012*[#  10]+0.010*[#  15]+0.010*[#  16]+0.004*[#   9]+
          +0.002*[#  11]+0.002*[#  13]+0.002*[#   2]+
    |psi|^2 = 0.911
==== e(  15) =    23.63474 eV ==== 
     psi = 0.686*[#   2]+0.074*[#  15]+0.074*[#  16]+0.057*[#  17]+0.034*[#   8]+
          +0.013*[#   6]+0.013*[#   7]+0.007*[#   1]+0.004*[#  10]+0.002*[#  11]+
          +0.002*[#  13]+
    |psi|^2 = 0.967

 k =   0.1479969843  0.0514772119  0.1479969843
==== e(   1) =   -71.87797 eV ==== 
     psi = 0.983*[#   1]+0.006*[#   2]+0.003*[#  15]+0.003*[#  16]+0.003*[#   8]+
          +0.001*[#  17]+
    |psi|^2 = 1.000
==== e(   2) =   -37.83734 eV ==== 
     psi = 0.343*[#   3]+0.343*[#   4]+0.302*[#   5]+0.003*[#   8]+0.002*[#   6]+
          +0.002*[#   7]+0.001*[#  14]+0.001*[#  17]+
    |psi|^2 = 0.998
==== e(   3) =   -37.77671 eV ==== 
     psi = 0.686*[#   5]+0.152*[#   3]+0.152*[#   4]+0.004*[#  17]+0.001*[#   8]+
    |psi|^2 = 0.998
==== e(   4) =   -37.74702 eV ==== 
     psi = 0.495*[#   3]+0.495*[#   4]+0.003*[#   6]+0.003*[#   7]+
    |psi|^2 = 0.998
==== e(   5) =    -4.58056 eV ==== 
     psi = 0.820*[#  14]+0.060*[#   6]+0.060*[#   7]+0.031*[#   8]+0.018*[#  12]+
          +0.006*[#   9]+0.002*[#   3]+0.002*[#   4]+0.001*[#   5]+
    |psi|^2 = 0.999
==== e(   6) =     6.88510 eV ==== 
     psi = 0.227*[#  15]+0.227*[#  16]+0.201*[#  17]+0.145*[#   2]+0.054*[#  10]+
          +0.047*[#   8]+0.031*[#  11]+0.031*[#  13]+0.014*[#   6]+0.014*[#   7]+
          +0.004*[#   1]+0.002*[#  12]+0.001*[#   5]+
    |psi|^2 = 0.999
==== e(   7) =     8.55186 eV ==== 
     psi = 0.482*[#  17]+0.107*[#  15]+0.107*[#  16]+0.106*[#  12]+0.072*[#   8]+
          +0.035*[#   9]+0.033*[#  10]+0.016*[#  11]+0.016*[#  13]+0.008*[#   6]+
          +0.008*[#   7]+0.003*[#   5]+0.002*[#   2]+0.001*[#  14]+
    |psi|^2 = 0.997
==== e(   8) =     9.02415 eV ==== 
     psi = 0.352*[#  15]+0.352*[#  16]+0.187*[#   9]+0.062*[#  12]+0.012*[#   6]+
          +0.012*[#   7]+0.010*[#  11]+0.010*[#  13]+
    |psi|^2 = 0.997
==== e(   9) =    13.54872 eV ==== 
     psi = 0.825*[#  10]+0.046*[#  12]+0.026*[#  15]+0.026*[#  16]+0.019*[#  11]+
          +0.019*[#  13]+0.015*[#   9]+0.006*[#  14]+0.004*[#   6]+0.004*[#   7]+
          +0.003*[#   2]+0.001*[#  17]+
    |psi|^2 = 0.995
==== e(  10) =    13.96395 eV ==== 
     psi = 0.486*[#  11]+0.486*[#  13]+0.015*[#   9]+0.005*[#  12]+0.003*[#  15]+
          +0.003*[#  16]+
    |psi|^2 = 0.999
==== e(  11) =    14.14591 eV ==== 
     psi = 0.412*[#  11]+0.412*[#  13]+0.064*[#  17]+0.038*[#  10]+0.020*[#  15]+
          +0.020*[#  16]+0.017*[#  12]+0.009*[#   2]+0.006*[#   9]+0.001*[#  14]+
    |psi|^2 = 0.999
==== e(  12) =    15.34771 eV ==== 
     psi = 0.548*[#  12]+0.183*[#   9]+0.090*[#  17]+0.039*[#  14]+0.029*[#  15]+
          +0.029*[#  16]+0.023*[#  10]+0.017*[#   8]+0.013*[#  11]+0.013*[#  13]+
          +0.007*[#   2]+0.003*[#   6]+0.003*[#   7]+
    |psi|^2 = 0.997
==== e(  13) =    15.96567 eV ==== 
     psi = 0.548*[#   9]+0.183*[#  12]+0.127*[#  15]+0.127*[#  16]+0.004*[#   6]+
          +0.004*[#   7]+0.003*[#  11]+0.003*[#  13]+
    |psi|^2 = 0.999
==== e(  14) =    21.83519 eV ==== 
     psi = 0.230*[#   8]+0.222*[#   6]+0.222*[#   7]+0.107*[#  14]+0.065*[#  17]+
          +0.015*[#  10]+0.011*[#  12]+0.009*[#  15]+0.009*[#  16]+0.008*[#   2]+
          +0.004*[#   9]+0.003*[#  11]+0.003*[#  13]+
    |psi|^2 = 0.907
==== e(  15) =    23.52605 eV ==== 
     psi = 0.691*[#   2]+0.076*[#  15]+0.076*[#  16]+0.042*[#  17]+0.027*[#   8]+
          +0.018*[#   6]+0.018*[#   7]+0.008*[#   1]+0.004*[#  10]+0.002*[#  11]+
          +0.002*[#  13]+0.001*[#  12]+
    |psi|^2 = 0.967

 k =   0.1544316358  0.0386079089  0.1544316358
==== e(   1) =   -71.88070 eV ==== 
     psi = 0.983*[#   1]+0.007*[#   2]+0.003*[#  15]+0.003*[#  16]+0.002*[#   8]+
    |psi|^2 = 1.000
==== e(   2) =   -37.83927 eV ==== 
     psi = 0.348*[#   3]+0.348*[#   4]+0.294*[#   5]+0.002*[#   8]+0.002*[#  17]+
          +0.001*[#  14]+
    |psi|^2 = 0.998
==== e(   3) =   -37.79378 eV ==== 
     psi = 0.694*[#   5]+0.148*[#   3]+0.148*[#   4]+0.005*[#  17]+
    |psi|^2 = 0.998
==== e(   4) =   -37.76477 eV ==== 
     psi = 0.496*[#   3]+0.496*[#   4]+0.003*[#   6]+0.003*[#   7]+
    |psi|^2 = 0.998
==== e(   5) =    -4.57770 eV ==== 
     psi = 0.837*[#  14]+0.053*[#   6]+0.053*[#   7]+0.024*[#  12]+0.020*[#   8]+
          +0.008*[#   9]+0.001*[#   3]+0.001*[#   4]+
    |psi|^2 = 0.999
==== e(   6) =     7.15756 eV ==== 
     psi = 0.233*[#  15]+0.233*[#  16]+0.201*[#  17]+0.123*[#   2]+0.057*[#  10]+
          +0.054*[#   8]+0.025*[#  11]+0.025*[#  13]+0.018*[#   6]+0.018*[#   7]+
          +0.005*[#  12]+0.003*[#   1]+0.002*[#   5]+0.002*[#   9]+
    |psi|^2 = 0.999
==== e(   7) =     8.42725 eV ==== 
     psi = 0.496*[#  17]+0.105*[#  15]+0.105*[#  16]+0.093*[#   8]+0.074*[#  12]+
          +0.033*[#  10]+0.025*[#   9]+0.018*[#  11]+0.018*[#  13]+0.010*[#   6]+
          +0.010*[#   7]+0.005*[#   2]+0.005*[#   5]+
    |psi|^2 = 0.997
==== e(   8) =     9.08352 eV ==== 
     psi = 0.359*[#  15]+0.359*[#  16]+0.177*[#   9]+0.059*[#  12]+0.015*[#   6]+
          +0.015*[#   7]+0.006*[#  11]+0.006*[#  13]+
    |psi|^2 = 0.998
==== e(   9) =    13.39990 eV ==== 
     psi = 0.838*[#  10]+0.042*[#  12]+0.033*[#  15]+0.033*[#  16]+0.014*[#   9]+
          +0.008*[#  11]+0.008*[#  13]+0.006*[#  14]+0.004*[#   2]+0.004*[#   6]+
          +0.004*[#   7]+
    |psi|^2 = 0.993
==== e(  10) =    13.98462 eV ==== 
     psi = 0.491*[#  11]+0.491*[#  13]+0.010*[#   9]+0.003*[#  12]+0.002*[#  15]+
          +0.002*[#  16]+
    |psi|^2 = 0.999
==== e(  11) =    14.15729 eV ==== 
     psi = 0.426*[#  11]+0.426*[#  13]+0.069*[#  17]+0.022*[#  12]+0.017*[#  10]+
          +0.012*[#  15]+0.012*[#  16]+0.007*[#   9]+0.006*[#   2]+0.001*[#  14]+
    |psi|^2 = 0.999
==== e(  12) =    15.11375 eV ==== 
     psi = 0.574*[#  12]+0.191*[#   9]+0.060*[#  17]+0.043*[#  14]+0.026*[#  15]+
          +0.026*[#  16]+0.023*[#  10]+0.015*[#  11]+0.015*[#  13]+0.012*[#   8]+
          +0.010*[#   2]+0.002*[#   6]+0.002*[#   7]+
    |psi|^2 = 0.998
==== e(  13) =    15.80953 eV ==== 
     psi = 0.563*[#   9]+0.188*[#  12]+0.117*[#  15]+0.117*[#  16]+0.005*[#   6]+
          +0.005*[#   7]+0.002*[#  11]+0.002*[#  13]+
    |psi|^2 = 0.999
==== e(  14) =    22.43309 eV ==== 
     psi = 0.238*[#   8]+0.211*[#   6]+0.211*[#   7]+0.084*[#  14]+0.077*[#  17]+
          +0.045*[#   2]+0.016*[#  10]+0.007*[#  12]+0.003*[#  15]+0.003*[#  16]+
          +0.003*[#  11]+0.003*[#  13]+0.002*[#   9]+
    |psi|^2 = 0.905
==== e(  15) =    23.40170 eV ==== 
     psi = 0.689*[#   2]+0.080*[#  15]+0.080*[#  16]+0.034*[#   6]+0.034*[#   7]+
          +0.018*[#  17]+0.008*[#   1]+0.006*[#  10]+0.006*[#   8]+0.003*[#  12]+
          +0.002*[#  14]+
    |psi|^2 = 0.962

 k =   0.1608662873  0.0257386060  0.1608662873
==== e(   1) =   -71.88275 eV ==== 
     psi = 0.984*[#   1]+0.008*[#   2]+0.002*[#  15]+0.002*[#  16]+0.002*[#   8]+
    |psi|^2 = 1.000
==== e(   2) =   -37.83491 eV ==== 
     psi = 0.369*[#   5]+0.311*[#   3]+0.311*[#   4]+0.003*[#  17]+0.001*[#  14]+
          +0.001*[#   8]+
    |psi|^2 = 0.998
==== e(   3) =   -37.82646 eV ==== 
     psi = 0.619*[#   5]+0.185*[#   3]+0.185*[#   4]+0.005*[#  17]+
    |psi|^2 = 0.998
==== e(   4) =   -37.76738 eV ==== 
     psi = 0.496*[#   3]+0.496*[#   4]+0.002*[#   6]+0.002*[#   7]+0.001*[#  15]+
          +0.001*[#  16]+
    |psi|^2 = 0.998
==== e(   5) =    -4.57710 eV ==== 
     psi = 0.853*[#  14]+0.045*[#   6]+0.045*[#   7]+0.031*[#  12]+0.010*[#   9]+
          +0.010*[#   8]+0.002*[#   2]+
    |psi|^2 = 0.999
==== e(   6) =     7.45547 eV ==== 
     psi = 0.234*[#  15]+0.234*[#  16]+0.213*[#  17]+0.099*[#   2]+0.062*[#   8]+
          +0.061*[#  10]+0.020*[#  11]+0.020*[#  13]+0.020*[#   6]+0.020*[#   7]+
          +0.007*[#  12]+0.002*[#   9]+0.002*[#   1]+0.002*[#   5]+
    |psi|^2 = 0.999
==== e(   7) =     8.27296 eV ==== 
     psi = 0.498*[#  17]+0.111*[#   8]+0.109*[#  15]+0.109*[#  16]+0.045*[#  12]+
          +0.034*[#  10]+0.019*[#  11]+0.019*[#  13]+0.015*[#   9]+0.011*[#   6]+
          +0.011*[#   7]+0.010*[#   2]+0.005*[#   5]+
    |psi|^2 = 0.998
==== e(   8) =     9.15903 eV ==== 
     psi = 0.367*[#  15]+0.367*[#  16]+0.165*[#   9]+0.055*[#  12]+0.018*[#   6]+
          +0.018*[#   7]+0.003*[#  11]+0.003*[#  13]+
    |psi|^2 = 0.998
==== e(   9) =    13.23627 eV ==== 
     psi = 0.845*[#  10]+0.039*[#  15]+0.039*[#  16]+0.035*[#  12]+0.012*[#   9]+
          +0.006*[#  14]+0.005*[#   2]+0.003*[#   6]+0.003*[#   7]+0.002*[#  11]+
          +0.002*[#  13]+
    |psi|^2 = 0.992
==== e(  10) =    14.01215 eV ==== 
     psi = 0.495*[#  11]+0.495*[#  13]+0.005*[#   9]+0.002*[#  12]+
    |psi|^2 = 0.999
==== e(  11) =    14.18057 eV ==== 
     psi = 0.439*[#  11]+0.439*[#  13]+0.075*[#  17]+0.018*[#  12]+0.006*[#  15]+
          +0.006*[#  16]+0.006*[#   9]+0.006*[#  10]+0.004*[#   2]+0.001*[#  14]+
    |psi|^2 = 0.999
==== e(  12) =    14.92429 eV ==== 
     psi = 0.606*[#  12]+0.202*[#   9]+0.046*[#  14]+0.030*[#  17]+0.024*[#  15]+
          +0.024*[#  16]+0.021*[#  10]+0.014*[#   2]+0.011*[#  11]+0.011*[#  13]+
          +0.006*[#   8]+0.001*[#   6]+0.001*[#   7]+
    |psi|^2 = 0.998
==== e(  13) =    15.64350 eV ==== 
     psi = 0.579*[#   9]+0.193*[#  12]+0.106*[#  15]+0.106*[#  16]+0.006*[#   6]+
          +0.006*[#   7]+0.001*[#  11]+0.001*[#  13]+
    |psi|^2 = 0.999
==== e(  14) =    22.85708 eV ==== 
     psi = 0.376*[#   2]+0.175*[#   8]+0.117*[#   6]+0.117*[#   7]+0.072*[#  17]+
          +0.048*[#  14]+0.008*[#  10]+0.006*[#  15]+0.006*[#  16]+0.005*[#   1]+
          +0.003*[#  11]+0.003*[#  13]+
    |psi|^2 = 0.936
==== e(  15) =    23.41429 eV ==== 
     psi = 0.418*[#   2]+0.129*[#   6]+0.129*[#   7]+0.072*[#  15]+0.072*[#  16]+
          +0.044*[#   8]+0.019*[#  14]+0.016*[#  10]+0.006*[#  12]+0.006*[#   1]+
          +0.003*[#  17]+0.002*[#   9]+
    |psi|^2 = 0.917

 k =   0.1673009388  0.0128693030  0.1673009388
==== e(   1) =   -71.87875 eV ==== 
     psi = 0.986*[#   1]+0.009*[#   2]+0.002*[#  15]+0.002*[#  16]+
    |psi|^2 = 1.000
==== e(   2) =   -37.82265 eV ==== 
     psi = 0.460*[#   3]+0.460*[#   4]+0.073*[#   5]+0.001*[#  14]+0.001*[#  15]+
          +0.001*[#  16]+
    |psi|^2 = 0.998
==== e(   3) =   -37.81969 eV ==== 
     psi = 0.915*[#   5]+0.037*[#   3]+0.037*[#   4]+0.009*[#  17]+
    |psi|^2 = 0.998
==== e(   4) =   -37.74671 eV ==== 
     psi = 0.496*[#   3]+0.496*[#   4]+0.002*[#   6]+0.002*[#   7]+0.002*[#  15]+
          +0.002*[#  16]+
    |psi|^2 = 0.998
==== e(   5) =    -4.57988 eV ==== 
     psi = 0.866*[#  14]+0.038*[#   6]+0.038*[#   7]+0.037*[#  12]+0.012*[#   9]+
          +0.004*[#   2]+0.003*[#   8]+
    |psi|^2 = 0.999
==== e(   6) =     7.76774 eV ==== 
     psi = 0.255*[#  17]+0.222*[#  15]+0.222*[#  16]+0.073*[#   8]+0.072*[#   2]+
          +0.061*[#  10]+0.020*[#   6]+0.020*[#   7]+0.016*[#  11]+0.016*[#  13]+
          +0.010*[#  12]+0.003*[#   9]+0.003*[#   5]+0.001*[#   1]+
    |psi|^2 = 0.999
==== e(   7) =     8.14367 eV ==== 
     psi = 0.467*[#  17]+0.126*[#  15]+0.126*[#  16]+0.118*[#   8]+0.038*[#  10]+
          +0.025*[#  12]+0.021*[#   2]+0.018*[#  11]+0.018*[#  13]+0.013*[#   6]+
          +0.013*[#   7]+0.008*[#   9]+0.006*[#   5]+
    |psi|^2 = 0.998
==== e(   8) =     9.24739 eV ==== 
     psi = 0.375*[#  15]+0.375*[#  16]+0.152*[#   9]+0.051*[#  12]+0.021*[#   6]+
          +0.021*[#   7]+
    |psi|^2 = 0.998
==== e(   9) =    13.06490 eV ==== 
     psi = 0.848*[#  10]+0.044*[#  15]+0.044*[#  16]+0.028*[#  12]+0.009*[#   9]+
          +0.006*[#   2]+0.005*[#  14]+0.003*[#   6]+0.003*[#   7]+
    |psi|^2 = 0.990
==== e(  10) =    14.04542 eV ==== 
     psi = 0.498*[#  11]+0.498*[#  13]+0.001*[#   9]+
    |psi|^2 = 0.999
==== e(  11) =    14.20828 eV ==== 
     psi = 0.454*[#  11]+0.454*[#  13]+0.077*[#  17]+0.007*[#  12]+0.002*[#   9]+
          +0.002*[#  15]+0.002*[#  16]+0.001*[#   2]+0.001*[#  10]+
    |psi|^2 = 0.999
==== e(  12) =    14.80409 eV ==== 
     psi = 0.638*[#  12]+0.213*[#   9]+0.050*[#  14]+0.022*[#  15]+0.022*[#  16]+
          +0.017*[#  10]+0.016*[#   2]+0.008*[#  17]+0.004*[#  11]+0.004*[#  13]+
          +0.002*[#   8]+
    |psi|^2 = 0.999
==== e(  13) =    15.46907 eV ==== 
     psi = 0.596*[#   9]+0.199*[#  12]+0.095*[#  15]+0.095*[#  16]+0.006*[#   6]+
          +0.006*[#   7]+
    |psi|^2 = 0.999
==== e(  14) =    22.84560 eV ==== 
     psi = 0.761*[#   2]+0.034*[#   6]+0.034*[#   7]+0.031*[#   8]+0.031*[#  15]+
          +0.031*[#  16]+0.021*[#  14]+0.017*[#  17]+0.010*[#   1]+0.001*[#  10]+
    |psi|^2 = 0.972
==== e(  15) =    23.83288 eV ==== 
     psi = 0.212*[#   6]+0.212*[#   7]+0.169*[#   8]+0.085*[#   2]+0.038*[#  17]+
          +0.037*[#  15]+0.037*[#  16]+0.031*[#  14]+0.023*[#  10]+0.004*[#  12]+
          +0.001*[#   9]+0.001*[#   1]+0.001*[#  11]+0.001*[#  13]+
    |psi|^2 = 0.856

 k =   0.1737355902  0.0000000000  0.1737355902
==== e(   1) =   -71.87784 eV ==== 
     psi = 0.987*[#   1]+0.009*[#   2]+0.002*[#  15]+0.002*[#  16]+
    |psi|^2 = 1.000
==== e(   2) =   -37.81750 eV ==== 
     psi = 0.987*[#   5]+0.010*[#  17]+
    |psi|^2 = 0.998
==== e(   3) =   -37.81641 eV ==== 
     psi = 0.496*[#   3]+0.496*[#   4]+0.002*[#  15]+0.002*[#  16]+0.001*[#  14]+
    |psi|^2 = 0.998
==== e(   4) =   -37.74753 eV ==== 
     psi = 0.496*[#   3]+0.496*[#   4]+0.002*[#  15]+0.002*[#  16]+0.001*[#   6]+
          +0.001*[#   7]+
    |psi|^2 = 0.998
==== e(   5) =    -4.58908 eV ==== 
     psi = 0.874*[#  14]+0.041*[#  12]+0.032*[#   6]+0.032*[#   7]+0.014*[#   9]+
          +0.006*[#   2]+
    |psi|^2 = 0.999
==== e(   6) =     7.96855 eV ==== 
     psi = 0.726*[#  17]+0.205*[#   8]+0.029*[#  11]+0.029*[#  13]+0.010*[#   5]+
    |psi|^2 = 0.999
==== e(   7) =     8.11629 eV ==== 
     psi = 0.354*[#  15]+0.354*[#  16]+0.101*[#  10]+0.081*[#   2]+0.034*[#   6]+
          +0.034*[#   7]+0.027*[#  12]+0.009*[#   9]+0.001*[#   3]+0.001*[#   4]+
          +0.001*[#   1]+
    |psi|^2 = 0.998
==== e(   8) =     9.33403 eV ==== 
     psi = 0.383*[#  15]+0.383*[#  16]+0.137*[#   9]+0.046*[#  12]+0.024*[#   6]+
          +0.024*[#   7]+
    |psi|^2 = 0.998
==== e(   9) =    12.88984 eV ==== 
     psi = 0.850*[#  10]+0.047*[#  15]+0.047*[#  16]+0.022*[#  12]+0.007*[#   9]+
          +0.006*[#   2]+0.005*[#  14]+0.002*[#   6]+0.002*[#   7]+
    |psi|^2 = 0.988
==== e(  10) =    14.08201 eV ==== 
     psi = 0.500*[#  11]+0.500*[#  13]+
    |psi|^2 = 0.999
==== e(  11) =    14.22598 eV ==== 
     psi = 0.465*[#  11]+0.465*[#  13]+0.069*[#  17]+
    |psi|^2 = 0.999
==== e(  12) =    14.75937 eV ==== 
     psi = 0.657*[#  12]+0.219*[#   9]+0.053*[#  14]+0.021*[#  15]+0.021*[#  16]+
          +0.014*[#   2]+0.013*[#  10]+
    |psi|^2 = 0.999
==== e(  13) =    15.28541 eV ==== 
     psi = 0.612*[#   9]+0.204*[#  12]+0.085*[#  15]+0.085*[#  16]+0.006*[#   6]+
          +0.006*[#   7]+
    |psi|^2 = 0.999
==== e(  14) =    22.60801 eV ==== 
     psi = 0.830*[#   2]+0.031*[#  15]+0.031*[#  16]+0.027*[#   6]+0.027*[#   7]+
          +0.020*[#  14]+0.011*[#   1]+
    |psi|^2 = 0.977
==== e(  15) =    24.29155 eV ==== 
     psi = 0.732*[#   8]+0.182*[#  17]+0.006*[#  11]+0.006*[#  13]+0.001*[#   5]+
    |psi|^2 = 0.926

Lowdin Charges: 

     Atom #   1: total charge =  15.6196, s =  2.3154, p =  6.6706, d =  6.6337, 
                 spin up      =   9.4327, s =  1.1696, 
                 spin up      =   9.4327, p =  3.3360, pz=  1.0825, px=  1.1569, py=  1.0966, 
                 spin up      =   9.4327, d =  4.9270, dz2=  0.9666, dxz=  0.9951, dyz=  0.9948, dx2-y2=  0.9733, dxy=  0.9972, 
                 spin down    =   6.1869, s =  1.1457, 
                 spin down    =   6.1869, p =  3.3345, pz=  1.0819, px=  1.1547, py=  1.0979, 
                 spin down    =   6.1869, d =  1.7067, dz2=  0.2124, dxz=  0.4281, dyz=  0.5983, dx2-y2=  0.1803, dxy=  0.2876, 
                 polarization =   3.2458, s =  0.0239, p =  0.0015, d =  3.2204, 
     Atom #   2: total charge =   6.5446, s =  1.6121, p =  4.9325, d =  0.0000, 
                 spin up      =   3.4405, s =  0.8248, 
                 spin up      =   3.4405, p =  2.6157, pz=  0.8887, px=  0.8378, py=  0.8892, 
                 spin up      =   3.4405, d =  0.0000, dz2=  0.0000, dxz=  0.0000, dyz=  0.0000, dx2-y2=  0.0000, dxy=  0.0000, 
                 spin down    =   3.1041, s =  0.7872, 
                 spin down    =   3.1041, p =  2.3169, pz=  0.7766, px=  0.7403, py=  0.8000, 
                 spin down    =   3.1041, d =  0.0000, dz2=  0.0000, dxz=  0.0000, dyz=  0.0000, dx2-y2=  0.0000, dxy=  0.0000, 
                 polarization =   0.3364, s =  0.0376, p =  0.2988, d =  0.0000, 
     Spilling Parameter:  -0.0075

     PROJWFC      :     3.07s CPU         3.30s WALL


   This run was terminated on:  18:20:58  15Aug2017            

=------------------------------------------------------------------------------=
   JOB DONE.
=------------------------------------------------------------------------------=
