
     Program PROJWFC v.6.1 (svn rev. 13369) starts on 15Aug2017 at 18:20:43 

     This program is part of the open-source Quantum ESPRESSO suite
     for quantum simulation of materials; please cite
         "P. Giannozzi et al., J. Phys.:Condens. Matter 21 395502 (2009);
          URL http://www.quantum-espresso.org", 
     in publications or presentations arising from this work. More details at
     http://www.quantum-espresso.org/quote

     Parallel version (MPI), running on     8 processors
     R & G space division:  proc/nbgrp/npool/nimage =       8

     Reading data from directory:
     ./outdir/pwscf.save

   Info: using nr1, nr2, nr3 values from input

   Info: using nr1, nr2, nr3 values from input

     IMPORTANT: XC functional enforced from input :
     Exchange-correlation      =  SLA  PZ   NOGX NOGC ( 1  1  0  0 0 0)
     Any further DFT definition will be discarded
     Please, verify this is what you really want

               file Fe.pz-spn-kjpaw_psl.0.2.1.UPF: wavefunction(s)  3D renormalized
               file O.pz-n-kjpaw_psl.0.1.UPF: wavefunction(s)  2P renormalized

     Parallelization info
     --------------------
     sticks:   dense  smooth     PW     G-vecs:    dense   smooth      PW
     Min          33      33     12                  371      371      80
     Max          35      35     13                  372      372      81
     Sum         271     271     97                 2975     2975     645

     Generating pointlists ...
     new r_m :   0.4125 (alat units)  0.7796 (a.u.) for type    1
     new r_m :   0.4125 (alat units)  0.7796 (a.u.) for type    2

     Check: negative/imaginary core charge=   -0.007909    0.000000

     negative rho (up, down):  8.432E-06 9.346E-04

     Gaussian broadening (read from file): ngauss,degauss=   0    0.020000


     Calling projwave .... 

     Atomic states used for projection
     (read from pseudopotential files):

     state #   1: atom   1 (Fe ), wfc  1 (l=0 m= 1)
     state #   2: atom   1 (Fe ), wfc  2 (l=0 m= 1)
     state #   3: atom   1 (Fe ), wfc  3 (l=1 m= 1)
     state #   4: atom   1 (Fe ), wfc  3 (l=1 m= 2)
     state #   5: atom   1 (Fe ), wfc  3 (l=1 m= 3)
     state #   6: atom   1 (Fe ), wfc  4 (l=1 m= 1)
     state #   7: atom   1 (Fe ), wfc  4 (l=1 m= 2)
     state #   8: atom   1 (Fe ), wfc  4 (l=1 m= 3)
     state #   9: atom   1 (Fe ), wfc  5 (l=2 m= 1)
     state #  10: atom   1 (Fe ), wfc  5 (l=2 m= 2)
     state #  11: atom   1 (Fe ), wfc  5 (l=2 m= 3)
     state #  12: atom   1 (Fe ), wfc  5 (l=2 m= 4)
     state #  13: atom   1 (Fe ), wfc  5 (l=2 m= 5)
     state #  14: atom   2 (O  ), wfc  1 (l=0 m= 1)
     state #  15: atom   2 (O  ), wfc  2 (l=1 m= 1)
     state #  16: atom   2 (O  ), wfc  2 (l=1 m= 2)
     state #  17: atom   2 (O  ), wfc  2 (l=1 m= 3)

 k =   0.0144779659  0.0144779659  0.0144779659
==== e(   1) =   -75.59800 eV ==== 
     psi = 0.954*[#   1]+0.014*[#   2]+0.010*[#   6]+0.010*[#   7]+0.010*[#   8]+
    |psi|^2 = 1.000
==== e(   2) =   -41.32653 eV ==== 
     psi = 0.327*[#   3]+0.327*[#   4]+0.327*[#   5]+0.004*[#   6]+0.004*[#   7]+
          +0.004*[#   8]+0.003*[#   2]+
    |psi|^2 = 0.999
==== e(   3) =   -41.30083 eV ==== 
     psi = 0.325*[#   3]+0.325*[#   4]+0.325*[#   5]+0.007*[#   6]+0.007*[#   7]+
          +0.007*[#   8]+
    |psi|^2 = 0.999
==== e(   4) =   -41.30083 eV ==== 
     psi = 0.325*[#   3]+0.325*[#   4]+0.325*[#   5]+0.007*[#   6]+0.007*[#   7]+
          +0.007*[#   8]+
    |psi|^2 = 0.999
==== e(   5) =    -6.43447 eV ==== 
     psi = 0.618*[#  14]+0.311*[#   2]+0.019*[#   6]+0.019*[#   7]+0.019*[#   8]+
          +0.013*[#   1]+
    |psi|^2 = 1.000
==== e(   6) =     9.66282 eV ==== 
     psi = 0.200*[#  10]+0.200*[#  11]+0.200*[#  13]+0.124*[#  15]+0.124*[#  16]+
          +0.124*[#  17]+0.015*[#   2]+0.007*[#  14]+0.001*[#   6]+0.001*[#   7]+
          +0.001*[#   8]+
    |psi|^2 = 0.998
==== e(   7) =     9.69951 eV ==== 
     psi = 0.209*[#   9]+0.209*[#  12]+0.132*[#  15]+0.132*[#  16]+0.132*[#  17]+
          +0.060*[#  10]+0.060*[#  11]+0.060*[#  13]+0.002*[#   6]+0.002*[#   7]+
          +0.002*[#   8]+
    |psi|^2 = 0.998
==== e(   8) =     9.69951 eV ==== 
     psi = 0.209*[#   9]+0.209*[#  12]+0.132*[#  15]+0.132*[#  16]+0.132*[#  17]+
          +0.060*[#  10]+0.060*[#  11]+0.060*[#  13]+0.002*[#   6]+0.002*[#   7]+
          +0.002*[#   8]+
    |psi|^2 = 0.998
==== e(   9) =    10.04930 eV ==== 
     psi = 0.265*[#  10]+0.265*[#  11]+0.265*[#  13]+0.087*[#   9]+0.087*[#  12]+
          +0.010*[#  15]+0.010*[#  16]+0.010*[#  17]+
    |psi|^2 = 0.999
==== e(  10) =    10.04930 eV ==== 
     psi = 0.265*[#  10]+0.265*[#  11]+0.265*[#  13]+0.087*[#   9]+0.087*[#  12]+
          +0.010*[#  15]+0.010*[#  16]+0.010*[#  17]+
    |psi|^2 = 0.999
==== e(  11) =    10.46428 eV ==== 
     psi = 0.188*[#  15]+0.188*[#  16]+0.188*[#  17]+0.132*[#  10]+0.132*[#  11]+
          +0.132*[#  13]+0.023*[#   2]+0.014*[#  14]+
    |psi|^2 = 0.997
==== e(  12) =    10.93508 eV ==== 
     psi = 0.204*[#   9]+0.204*[#  12]+0.186*[#  15]+0.186*[#  16]+0.186*[#  17]+
          +0.008*[#  10]+0.008*[#  11]+0.008*[#  13]+0.002*[#   6]+0.002*[#   7]+
          +0.002*[#   8]+
    |psi|^2 = 0.997
==== e(  13) =    10.93508 eV ==== 
     psi = 0.204*[#   9]+0.204*[#  12]+0.186*[#  15]+0.186*[#  16]+0.186*[#  17]+
          +0.008*[#  10]+0.008*[#  11]+0.008*[#  13]+0.002*[#   6]+0.002*[#   7]+
          +0.002*[#   8]+
    |psi|^2 = 0.997
==== e(  14) =    14.75407 eV ==== 
     psi = 0.521*[#   2]+0.355*[#  14]+0.018*[#   6]+0.018*[#   7]+0.018*[#   8]+
          +0.017*[#  15]+0.017*[#  16]+0.017*[#  17]+0.016*[#   1]+
    |psi|^2 = 0.995
==== e(  15) =    28.51683 eV ==== 
     psi = 0.014*[#   6]+0.014*[#   7]+0.014*[#   8]+0.006*[#   2]+
    |psi|^2 = 0.053

 k =  -0.0144779659  0.0434338976  0.0434338976
==== e(   1) =   -75.60611 eV ==== 
     psi = 0.912*[#   1]+0.029*[#   6]+0.029*[#   7]+0.029*[#   8]+
    |psi|^2 = 1.000
==== e(   2) =   -41.36553 eV ==== 
     psi = 0.330*[#   3]+0.330*[#   4]+0.330*[#   5]+0.005*[#   2]+
    |psi|^2 = 0.998
==== e(   3) =   -41.34063 eV ==== 
     psi = 0.327*[#   3]+0.327*[#   4]+0.327*[#   5]+0.005*[#   6]+0.005*[#   7]+
          +0.005*[#   8]+
    |psi|^2 = 0.999
==== e(   4) =   -41.33069 eV ==== 
     psi = 0.326*[#   3]+0.326*[#   4]+0.326*[#   5]+0.007*[#   6]+0.007*[#   7]+
          +0.007*[#   8]+
    |psi|^2 = 0.999
==== e(   5) =    -6.22591 eV ==== 
     psi = 0.609*[#  14]+0.174*[#   2]+0.066*[#   6]+0.066*[#   7]+0.066*[#   8]+
          +0.015*[#   1]+
    |psi|^2 = 1.000
==== e(   6) =     8.41907 eV ==== 
     psi = 0.190*[#  15]+0.190*[#  16]+0.190*[#  17]+0.072*[#   2]+0.067*[#   9]+
          +0.067*[#  12]+0.060*[#  10]+0.060*[#  11]+0.060*[#  13]+0.038*[#  14]+
          +0.003*[#   1]+
    |psi|^2 = 0.998
==== e(   7) =     8.75025 eV ==== 
     psi = 0.256*[#   9]+0.256*[#  12]+0.157*[#  15]+0.157*[#  16]+0.157*[#  17]+
          +0.004*[#  10]+0.004*[#  11]+0.004*[#  13]+
    |psi|^2 = 0.999
==== e(   8) =     9.15695 eV ==== 
     psi = 0.146*[#  10]+0.146*[#  11]+0.146*[#  13]+0.142*[#  15]+0.142*[#  16]+
          +0.142*[#  17]+0.056*[#   9]+0.056*[#  12]+0.006*[#   6]+0.006*[#   7]+
          +0.006*[#   8]+0.002*[#   2]+
    |psi|^2 = 0.998
==== e(   9) =    10.10446 eV ==== 
     psi = 0.327*[#  10]+0.327*[#  11]+0.327*[#  13]+0.008*[#   9]+0.008*[#  12]+
    |psi|^2 = 0.999
==== e(  10) =    10.26873 eV ==== 
     psi = 0.220*[#  10]+0.220*[#  11]+0.220*[#  13]+0.162*[#   9]+0.162*[#  12]+
          +0.004*[#  15]+0.004*[#  16]+0.004*[#  17]+
    |psi|^2 = 0.999
==== e(  11) =    10.71759 eV ==== 
     psi = 0.190*[#  10]+0.190*[#  11]+0.190*[#  13]+0.103*[#  15]+0.103*[#  16]+
          +0.103*[#  17]+0.029*[#   2]+0.029*[#   9]+0.029*[#  12]+0.024*[#  14]+
          +0.002*[#   6]+0.002*[#   7]+0.002*[#   8]+0.002*[#   1]+
    |psi|^2 = 0.998
==== e(  12) =    11.30654 eV ==== 
     psi = 0.183*[#   9]+0.183*[#  12]+0.153*[#  15]+0.153*[#  16]+0.153*[#  17]+
          +0.047*[#  10]+0.047*[#  11]+0.047*[#  13]+0.012*[#   2]+0.011*[#  14]+
          +0.002*[#   6]+0.002*[#   7]+0.002*[#   8]+
    |psi|^2 = 0.997
==== e(  13) =    12.04565 eV ==== 
     psi = 0.235*[#   9]+0.235*[#  12]+0.172*[#  15]+0.172*[#  16]+0.172*[#  17]+
          +0.002*[#   6]+0.002*[#   7]+0.002*[#   8]+0.001*[#  10]+0.001*[#  11]+
          +0.001*[#  13]+
    |psi|^2 = 0.996
==== e(  14) =    15.96136 eV ==== 
     psi = 0.309*[#   2]+0.300*[#  14]+0.061*[#   6]+0.061*[#   7]+0.061*[#   8]+
          +0.060*[#  15]+0.060*[#  16]+0.060*[#  17]+0.017*[#   1]+0.002*[#   9]+
          +0.002*[#  12]+
    |psi|^2 = 0.995
==== e(  15) =    26.82387 eV ==== 
     psi = 0.083*[#   6]+0.083*[#   7]+0.083*[#   8]+0.047*[#   2]+0.005*[#   1]+
          +0.002*[#  15]+0.002*[#  16]+0.002*[#  17]+0.002*[#   3]+0.002*[#   4]+
          +0.002*[#   5]+0.001*[#  10]+0.001*[#  11]+0.001*[#  13]+0.001*[#  14]+
    |psi|^2 = 0.318

 k =  -0.0434338976  0.0723898293  0.0723898293
==== e(   1) =   -75.60622 eV ==== 
     psi = 0.911*[#   1]+0.027*[#   6]+0.027*[#   7]+0.027*[#   8]+0.004*[#   2]+
          +0.001*[#  15]+0.001*[#  16]+0.001*[#  17]+
    |psi|^2 = 1.000
==== e(   2) =   -41.42159 eV ==== 
     psi = 0.329*[#   3]+0.329*[#   4]+0.329*[#   5]+0.003*[#   2]+0.002*[#   6]+
          +0.002*[#   7]+0.002*[#   8]+
    |psi|^2 = 0.998
==== e(   3) =   -41.34103 eV ==== 
     psi = 0.328*[#   3]+0.328*[#   4]+0.328*[#   5]+0.004*[#   6]+0.004*[#   7]+
          +0.004*[#   8]+
    |psi|^2 = 0.999
==== e(   4) =   -41.33094 eV ==== 
     psi = 0.327*[#   3]+0.327*[#   4]+0.327*[#   5]+0.005*[#   6]+0.005*[#   7]+
          +0.005*[#   8]+
    |psi|^2 = 0.999
==== e(   5) =    -5.79429 eV ==== 
     psi = 0.653*[#  14]+0.086*[#   6]+0.086*[#   7]+0.086*[#   8]+0.069*[#   2]+
          +0.012*[#   1]+0.002*[#   3]+0.002*[#   4]+0.002*[#   5]+
    |psi|^2 = 1.000
==== e(   6) =     6.87911 eV ==== 
     psi = 0.191*[#  15]+0.191*[#  16]+0.191*[#  17]+0.125*[#   2]+0.065*[#  10]+
          +0.065*[#  11]+0.065*[#  13]+0.048*[#  14]+0.018*[#   9]+0.018*[#  12]+
          +0.006*[#   6]+0.006*[#   7]+0.006*[#   8]+0.005*[#   1]+
    |psi|^2 = 0.999
==== e(   7) =     7.95381 eV ==== 
     psi = 0.241*[#   9]+0.241*[#  12]+0.160*[#  15]+0.160*[#  16]+0.160*[#  17]+
          +0.012*[#  10]+0.012*[#  11]+0.012*[#  13]+
    |psi|^2 = 0.999
==== e(   8) =     8.22350 eV ==== 
     psi = 0.165*[#   9]+0.165*[#  12]+0.161*[#  15]+0.161*[#  16]+0.161*[#  17]+
          +0.056*[#  10]+0.056*[#  11]+0.056*[#  13]+0.005*[#   6]+0.005*[#   7]+
          +0.005*[#   8]+0.002*[#   2]+
    |psi|^2 = 0.999
==== e(   9) =    10.36881 eV ==== 
     psi = 0.317*[#  10]+0.317*[#  11]+0.317*[#  13]+0.022*[#   9]+0.022*[#  12]+
          +0.001*[#  15]+0.001*[#  16]+0.001*[#  17]+
    |psi|^2 = 0.999
==== e(  10) =    10.49268 eV ==== 
     psi = 0.260*[#  10]+0.260*[#  11]+0.260*[#  13]+0.099*[#   9]+0.099*[#  12]+
          +0.005*[#  15]+0.005*[#  16]+0.005*[#  17]+0.003*[#  14]+0.002*[#   2]+
    |psi|^2 = 0.999
==== e(  11) =    10.93204 eV ==== 
     psi = 0.258*[#  10]+0.258*[#  11]+0.258*[#  13]+0.054*[#  15]+0.054*[#  16]+
          +0.054*[#  17]+0.027*[#   2]+0.019*[#  14]+0.004*[#   6]+0.004*[#   7]+
          +0.004*[#   8]+0.001*[#   1]+0.001*[#   9]+0.001*[#  12]+
    |psi|^2 = 0.998
==== e(  12) =    12.36134 eV ==== 
     psi = 0.213*[#   9]+0.213*[#  12]+0.157*[#  15]+0.157*[#  16]+0.157*[#  17]+
          +0.025*[#  10]+0.025*[#  11]+0.025*[#  13]+0.007*[#  14]+0.004*[#   2]+
          +0.004*[#   6]+0.004*[#   7]+0.004*[#   8]+
    |psi|^2 = 0.996
==== e(  13) =    13.00949 eV ==== 
     psi = 0.235*[#   9]+0.235*[#  12]+0.170*[#  15]+0.170*[#  16]+0.170*[#  17]+
          +0.004*[#  10]+0.004*[#  11]+0.004*[#  13]+
    |psi|^2 = 0.995
==== e(  14) =    17.69971 eV ==== 
     psi = 0.248*[#  14]+0.157*[#   2]+0.110*[#   6]+0.110*[#   7]+0.110*[#   8]+
          +0.075*[#  15]+0.075*[#  16]+0.075*[#  17]+0.017*[#   1]+0.002*[#   9]+
          +0.002*[#  12]+0.002*[#   3]+0.002*[#   4]+0.002*[#   5]+
    |psi|^2 = 0.986
==== e(  15) =    24.75400 eV ==== 
     psi = 0.334*[#   2]+0.081*[#   6]+0.081*[#   7]+0.081*[#   8]+0.025*[#   1]+
          +0.012*[#  15]+0.012*[#  16]+0.012*[#  17]+0.004*[#  14]+0.001*[#  10]+
          +0.001*[#  11]+0.001*[#  13]+
    |psi|^2 = 0.648

 k =  -0.0723898293  0.1013457610  0.1013457610
==== e(   1) =   -75.60364 eV ==== 
     psi = 0.956*[#   1]+0.010*[#   6]+0.010*[#   7]+0.010*[#   8]+0.005*[#   2]+
          +0.002*[#  15]+0.002*[#  16]+0.002*[#  17]+
    |psi|^2 = 1.000
==== e(   2) =   -41.44088 eV ==== 
     psi = 0.327*[#   3]+0.327*[#   4]+0.327*[#   5]+0.004*[#   6]+0.004*[#   7]+
          +0.004*[#   8]+
    |psi|^2 = 0.998
==== e(   3) =   -41.34856 eV ==== 
     psi = 0.330*[#   3]+0.330*[#   4]+0.330*[#   5]+0.003*[#   6]+0.003*[#   7]+
          +0.003*[#   8]+
    |psi|^2 = 0.999
==== e(   4) =   -41.32913 eV ==== 
     psi = 0.329*[#   3]+0.329*[#   4]+0.329*[#   5]+0.004*[#   6]+0.004*[#   7]+
          +0.004*[#   8]+
    |psi|^2 = 0.999
==== e(   5) =    -5.36049 eV ==== 
     psi = 0.740*[#  14]+0.077*[#   6]+0.077*[#   7]+0.077*[#   8]+0.015*[#   2]+
          +0.004*[#   1]+0.002*[#   3]+0.002*[#   4]+0.002*[#   5]+0.001*[#   9]+
          +0.001*[#  12]+
    |psi|^2 = 1.000
==== e(   6) =     5.74413 eV ==== 
     psi = 0.192*[#  15]+0.192*[#  16]+0.192*[#  17]+0.172*[#   2]+0.067*[#  10]+
          +0.067*[#  11]+0.067*[#  13]+0.018*[#  14]+0.007*[#   6]+0.007*[#   7]+
          +0.007*[#   8]+0.005*[#   1]+0.003*[#   9]+0.003*[#  12]+
    |psi|^2 = 0.999
==== e(   7) =     7.49372 eV ==== 
     psi = 0.231*[#   9]+0.231*[#  12]+0.161*[#  15]+0.161*[#  16]+0.161*[#  17]+
          +0.017*[#  10]+0.017*[#  11]+0.017*[#  13]+
    |psi|^2 = 0.999
==== e(   8) =     7.59452 eV ==== 
     psi = 0.202*[#   9]+0.202*[#  12]+0.163*[#  15]+0.163*[#  16]+0.163*[#  17]+
          +0.031*[#  10]+0.031*[#  11]+0.031*[#  13]+0.003*[#   6]+0.003*[#   7]+
          +0.003*[#   8]+
    |psi|^2 = 0.999
==== e(   9) =    10.65069 eV ==== 
     psi = 0.310*[#  10]+0.310*[#  11]+0.310*[#  13]+0.031*[#   9]+0.031*[#  12]+
          +0.002*[#  15]+0.002*[#  16]+0.002*[#  17]+
    |psi|^2 = 1.000
==== e(  10) =    10.71502 eV ==== 
     psi = 0.288*[#  10]+0.288*[#  11]+0.288*[#  13]+0.062*[#   9]+0.062*[#  12]+
          +0.003*[#  15]+0.003*[#  16]+0.003*[#  17]+0.001*[#  14]+
    |psi|^2 = 1.000
==== e(  11) =    11.24545 eV ==== 
     psi = 0.264*[#  10]+0.264*[#  11]+0.264*[#  13]+0.054*[#  15]+0.054*[#  16]+
          +0.054*[#  17]+0.032*[#   2]+0.006*[#  14]+0.002*[#   6]+0.002*[#   7]+
          +0.002*[#   8]+
    |psi|^2 = 0.999
==== e(  12) =    13.15508 eV ==== 
     psi = 0.230*[#   9]+0.230*[#  12]+0.158*[#  15]+0.158*[#  16]+0.158*[#  17]+
          +0.014*[#  10]+0.014*[#  11]+0.014*[#  13]+0.007*[#  14]+0.004*[#   6]+
          +0.004*[#   7]+0.004*[#   8]+
    |psi|^2 = 0.995
==== e(  13) =    13.56416 eV ==== 
     psi = 0.236*[#   9]+0.236*[#  12]+0.168*[#  15]+0.168*[#  16]+0.168*[#  17]+
          +0.005*[#  10]+0.005*[#  11]+0.005*[#  13]+
    |psi|^2 = 0.993
==== e(  14) =    19.03418 eV ==== 
     psi = 0.205*[#  14]+0.187*[#   6]+0.187*[#   7]+0.187*[#   8]+0.043*[#   2]+
          +0.040*[#  15]+0.040*[#  16]+0.040*[#  17]+0.010*[#   1]+0.002*[#   3]+
          +0.002*[#   4]+0.002*[#   5]+0.001*[#   9]+0.001*[#  12]+
    |psi|^2 = 0.948
==== e(  15) =    23.21202 eV ==== 
     psi = 0.625*[#   2]+0.047*[#  15]+0.047*[#  16]+0.047*[#  17]+0.033*[#   6]+
          +0.033*[#   7]+0.033*[#   8]+0.017*[#   1]+0.001*[#  14]+
    |psi|^2 = 0.885

 k =   0.1303016927 -0.1013457610 -0.1013457610
==== e(   1) =   -75.60980 eV ==== 
     psi = 0.983*[#   1]+0.003*[#   2]+0.003*[#  15]+0.003*[#  16]+0.003*[#  17]+
    |psi|^2 = 1.000
==== e(   2) =   -41.48416 eV ==== 
     psi = 0.327*[#   3]+0.327*[#   4]+0.327*[#   5]+0.005*[#   6]+0.005*[#   7]+
          +0.005*[#   8]+0.001*[#  14]+
    |psi|^2 = 0.998
==== e(   3) =   -41.36180 eV ==== 
     psi = 0.330*[#   3]+0.330*[#   4]+0.330*[#   5]+0.003*[#   6]+0.003*[#   7]+
          +0.003*[#   8]+
    |psi|^2 = 0.999
==== e(   4) =   -41.36003 eV ==== 
     psi = 0.330*[#   3]+0.330*[#   4]+0.330*[#   5]+0.003*[#   6]+0.003*[#   7]+
          +0.003*[#   8]+
    |psi|^2 = 0.999
==== e(   5) =    -5.22633 eV ==== 
     psi = 0.775*[#  14]+0.071*[#   6]+0.071*[#   7]+0.071*[#   8]+0.002*[#   3]+
          +0.002*[#   4]+0.002*[#   5]+0.001*[#   9]+0.001*[#  12]+
    |psi|^2 = 1.000
==== e(   6) =     5.41524 eV ==== 
     psi = 0.195*[#  15]+0.195*[#  16]+0.195*[#  17]+0.193*[#   2]+0.068*[#  10]+
          +0.068*[#  11]+0.068*[#  13]+0.005*[#   1]+0.004*[#   6]+0.004*[#   7]+
          +0.004*[#   8]+
    |psi|^2 = 1.000
==== e(   7) =     7.37484 eV ==== 
     psi = 0.216*[#   9]+0.216*[#  12]+0.164*[#  15]+0.164*[#  16]+0.164*[#  17]+
          +0.023*[#  10]+0.023*[#  11]+0.023*[#  13]+0.002*[#   6]+0.002*[#   7]+
          +0.002*[#   8]+
    |psi|^2 = 0.999
==== e(   8) =     7.41822 eV ==== 
     psi = 0.222*[#   9]+0.222*[#  12]+0.163*[#  15]+0.163*[#  16]+0.163*[#  17]+
          +0.022*[#  10]+0.022*[#  11]+0.022*[#  13]+
    |psi|^2 = 0.999
==== e(   9) =    10.73880 eV ==== 
     psi = 0.301*[#  10]+0.301*[#  11]+0.301*[#  13]+0.043*[#   9]+0.043*[#  12]+
          +0.002*[#  15]+0.002*[#  16]+0.002*[#  17]+
    |psi|^2 = 1.000
==== e(  10) =    10.78331 eV ==== 
     psi = 0.304*[#  10]+0.304*[#  11]+0.304*[#  13]+0.041*[#   9]+0.041*[#  12]+
          +0.002*[#  15]+0.002*[#  16]+0.002*[#  17]+
    |psi|^2 = 1.000
==== e(  11) =    11.35232 eV ==== 
     psi = 0.264*[#  10]+0.264*[#  11]+0.264*[#  13]+0.057*[#  15]+0.057*[#  16]+
          +0.057*[#  17]+0.035*[#   2]+
    |psi|^2 = 0.999
==== e(  12) =    13.50430 eV ==== 
     psi = 0.237*[#   9]+0.237*[#  12]+0.159*[#  15]+0.159*[#  16]+0.159*[#  17]+
          +0.008*[#  10]+0.008*[#  11]+0.008*[#  13]+0.007*[#  14]+0.003*[#   6]+
          +0.003*[#   7]+0.003*[#   8]+
    |psi|^2 = 0.993
==== e(  13) =    13.54720 eV ==== 
     psi = 0.236*[#   9]+0.236*[#  12]+0.165*[#  15]+0.165*[#  16]+0.165*[#  17]+
          +0.008*[#  10]+0.008*[#  11]+0.008*[#  13]+0.001*[#   6]+0.001*[#   7]+
          +0.001*[#   8]+
    |psi|^2 = 0.994
==== e(  14) =    19.36046 eV ==== 
     psi = 0.231*[#   6]+0.231*[#   7]+0.231*[#   8]+0.193*[#  14]+0.008*[#  15]+
          +0.008*[#  16]+0.008*[#  17]+0.002*[#   3]+0.002*[#   4]+0.002*[#   5]+
          +0.002*[#   2]+0.001*[#   9]+0.001*[#  12]+
    |psi|^2 = 0.921
==== e(  15) =    22.73028 eV ==== 
     psi = 0.716*[#   2]+0.074*[#  15]+0.074*[#  16]+0.074*[#  17]+0.009*[#   1]+
          +0.006*[#   6]+0.006*[#   7]+0.006*[#   8]+
    |psi|^2 = 0.966

 k =   0.1013457610 -0.0723898293 -0.0723898293
==== e(   1) =   -75.60513 eV ==== 
     psi = 0.938*[#   1]+0.017*[#   6]+0.017*[#   7]+0.017*[#   8]+0.006*[#   2]+
          +0.002*[#  15]+0.002*[#  16]+0.002*[#  17]+
    |psi|^2 = 1.000
==== e(   2) =   -41.41930 eV ==== 
     psi = 0.328*[#   3]+0.328*[#   4]+0.328*[#   5]+0.004*[#   6]+0.004*[#   7]+
          +0.004*[#   8]+0.001*[#   2]+
    |psi|^2 = 0.998
==== e(   3) =   -41.35124 eV ==== 
     psi = 0.329*[#   3]+0.329*[#   4]+0.329*[#   5]+0.003*[#   6]+0.003*[#   7]+
          +0.003*[#   8]+
    |psi|^2 = 0.999
==== e(   4) =   -41.34805 eV ==== 
     psi = 0.329*[#   3]+0.329*[#   4]+0.329*[#   5]+0.004*[#   6]+0.004*[#   7]+
          +0.004*[#   8]+
    |psi|^2 = 0.999
==== e(   5) =    -5.48511 eV ==== 
     psi = 0.711*[#  14]+0.081*[#   6]+0.081*[#   7]+0.081*[#   8]+0.029*[#   2]+
          +0.007*[#   1]+0.002*[#   3]+0.002*[#   4]+0.002*[#   5]+0.001*[#   9]+
          +0.001*[#  12]+
    |psi|^2 = 1.000
==== e(   6) =     6.05294 eV ==== 
     psi = 0.190*[#  15]+0.190*[#  16]+0.190*[#  17]+0.155*[#   2]+0.066*[#  10]+
          +0.066*[#  11]+0.066*[#  13]+0.030*[#  14]+0.009*[#   6]+0.009*[#   7]+
          +0.009*[#   8]+0.006*[#   9]+0.006*[#  12]+0.005*[#   1]+
    |psi|^2 = 0.999
==== e(   7) =     7.60715 eV ==== 
     psi = 0.218*[#   9]+0.218*[#  12]+0.162*[#  15]+0.162*[#  16]+0.162*[#  17]+
          +0.023*[#  10]+0.023*[#  11]+0.023*[#  13]+0.002*[#   2]+
    |psi|^2 = 0.999
==== e(   8) =     7.76740 eV ==== 
     psi = 0.211*[#   9]+0.211*[#  12]+0.162*[#  15]+0.162*[#  16]+0.162*[#  17]+
          +0.028*[#  10]+0.028*[#  11]+0.028*[#  13]+0.002*[#   6]+0.002*[#   7]+
          +0.002*[#   8]+
    |psi|^2 = 0.999
==== e(   9) =    10.52352 eV ==== 
     psi = 0.304*[#  10]+0.304*[#  11]+0.304*[#  13]+0.035*[#   9]+0.035*[#  12]+
          +0.004*[#  15]+0.004*[#  16]+0.004*[#  17]+0.002*[#  14]+0.001*[#   2]+
    |psi|^2 = 0.999
==== e(  10) =    10.68402 eV ==== 
     psi = 0.291*[#  10]+0.291*[#  11]+0.291*[#  13]+0.060*[#   9]+0.060*[#  12]+
          +0.002*[#  15]+0.002*[#  16]+0.002*[#  17]+
    |psi|^2 = 1.000
==== e(  11) =    11.15124 eV ==== 
     psi = 0.265*[#  10]+0.265*[#  11]+0.265*[#  13]+0.051*[#  15]+0.051*[#  16]+
          +0.051*[#  17]+0.029*[#   2]+0.010*[#  14]+0.003*[#   6]+0.003*[#   7]+
          +0.003*[#   8]+
    |psi|^2 = 0.999
==== e(  12) =    13.02605 eV ==== 
     psi = 0.228*[#   9]+0.228*[#  12]+0.163*[#  15]+0.163*[#  16]+0.163*[#  17]+
          +0.014*[#  10]+0.014*[#  11]+0.014*[#  13]+0.003*[#   6]+0.003*[#   7]+
          +0.003*[#   8]+
    |psi|^2 = 0.996
==== e(  13) =    13.31494 eV ==== 
     psi = 0.236*[#   9]+0.236*[#  12]+0.162*[#  15]+0.162*[#  16]+0.162*[#  17]+
          +0.008*[#  14]+0.006*[#  10]+0.006*[#  11]+0.006*[#  13]+0.002*[#   6]+
          +0.002*[#   7]+0.002*[#   8]+
    |psi|^2 = 0.993
==== e(  14) =    18.70364 eV ==== 
     psi = 0.216*[#  14]+0.157*[#   6]+0.157*[#   7]+0.157*[#   8]+0.080*[#   2]+
          +0.058*[#  15]+0.058*[#  16]+0.058*[#  17]+0.014*[#   1]+0.002*[#   3]+
          +0.002*[#   4]+0.002*[#   5]+0.002*[#   9]+0.002*[#  12]+
    |psi|^2 = 0.965
==== e(  15) =    23.62485 eV ==== 
     psi = 0.547*[#   2]+0.048*[#   6]+0.048*[#   7]+0.048*[#   8]+0.031*[#  15]+
          +0.031*[#  16]+0.031*[#  17]+0.023*[#   1]+0.003*[#  14]+
    |psi|^2 = 0.813

 k =   0.0723898293 -0.0434338976 -0.0434338976
==== e(   1) =   -75.60670 eV ==== 
     psi = 0.906*[#   1]+0.029*[#   6]+0.029*[#   7]+0.029*[#   8]+0.003*[#   2]+
    |psi|^2 = 1.000
==== e(   2) =   -41.38520 eV ==== 
     psi = 0.330*[#   3]+0.330*[#   4]+0.330*[#   5]+0.004*[#   2]+0.001*[#   6]+
          +0.001*[#   7]+0.001*[#   8]+
    |psi|^2 = 0.998
==== e(   3) =   -41.35711 eV ==== 
     psi = 0.327*[#   3]+0.327*[#   4]+0.327*[#   5]+0.006*[#   6]+0.006*[#   7]+
          +0.006*[#   8]+
    |psi|^2 = 0.999
==== e(   4) =   -41.33502 eV ==== 
     psi = 0.328*[#   3]+0.328*[#   4]+0.328*[#   5]+0.004*[#   6]+0.004*[#   7]+
          +0.004*[#   8]+
    |psi|^2 = 0.999
==== e(   5) =    -5.95348 eV ==== 
     psi = 0.632*[#  14]+0.098*[#   2]+0.084*[#   6]+0.084*[#   7]+0.084*[#   8]+
          +0.014*[#   1]+0.001*[#   3]+0.001*[#   4]+0.001*[#   5]+
    |psi|^2 = 1.000
==== e(   6) =     7.36944 eV ==== 
     psi = 0.189*[#  15]+0.189*[#  16]+0.189*[#  17]+0.100*[#   2]+0.056*[#  10]+
          +0.056*[#  11]+0.056*[#  13]+0.049*[#   9]+0.049*[#  12]+0.047*[#  14]+
          +0.005*[#   6]+0.005*[#   7]+0.005*[#   8]+0.005*[#   1]+
    |psi|^2 = 0.998
==== e(   7) =     8.28729 eV ==== 
     psi = 0.180*[#   9]+0.180*[#  12]+0.161*[#  15]+0.161*[#  16]+0.161*[#  17]+
          +0.046*[#  10]+0.046*[#  11]+0.046*[#  13]+0.010*[#   2]+0.004*[#  14]+
          +0.001*[#   6]+0.001*[#   7]+0.001*[#   8]+
    |psi|^2 = 0.999
==== e(   8) =     8.49597 eV ==== 
     psi = 0.193*[#   9]+0.193*[#  12]+0.159*[#  15]+0.159*[#  16]+0.159*[#  17]+
          +0.042*[#  10]+0.042*[#  11]+0.042*[#  13]+0.003*[#   6]+0.003*[#   7]+
          +0.003*[#   8]+
    |psi|^2 = 0.999
==== e(   9) =    10.21746 eV ==== 
     psi = 0.308*[#  10]+0.308*[#  11]+0.308*[#  13]+0.027*[#   9]+0.027*[#  12]+
          +0.005*[#  15]+0.005*[#  16]+0.005*[#  17]+0.002*[#   2]+0.002*[#  14]+
    |psi|^2 = 0.999
==== e(  10) =    10.42612 eV ==== 
     psi = 0.264*[#  10]+0.264*[#  11]+0.264*[#  13]+0.100*[#   9]+0.100*[#  12]+
          +0.001*[#  15]+0.001*[#  16]+0.001*[#  17]+
    |psi|^2 = 0.999
==== e(  11) =    10.83796 eV ==== 
     psi = 0.250*[#  10]+0.250*[#  11]+0.250*[#  13]+0.058*[#  15]+0.058*[#  16]+
          +0.058*[#  17]+0.028*[#   2]+0.024*[#  14]+0.004*[#   6]+0.004*[#   7]+
          +0.004*[#   8]+0.004*[#   9]+0.004*[#  12]+0.002*[#   1]+
    |psi|^2 = 0.998
==== e(  12) =    12.14310 eV ==== 
     psi = 0.207*[#   9]+0.207*[#  12]+0.166*[#  15]+0.166*[#  16]+0.166*[#  17]+
          +0.026*[#  10]+0.026*[#  11]+0.026*[#  13]+0.003*[#   6]+0.003*[#   7]+
          +0.003*[#   8]+
    |psi|^2 = 0.997
==== e(  13) =    12.57919 eV ==== 
     psi = 0.236*[#   9]+0.236*[#  12]+0.161*[#  15]+0.161*[#  16]+0.161*[#  17]+
          +0.011*[#  14]+0.005*[#   2]+0.005*[#  10]+0.005*[#  11]+0.005*[#  13]+
          +0.003*[#   6]+0.003*[#   7]+0.003*[#   8]+
    |psi|^2 = 0.995
==== e(  14) =    17.16357 eV ==== 
     psi = 0.260*[#  14]+0.203*[#   2]+0.090*[#   6]+0.090*[#   7]+0.090*[#   8]+
          +0.077*[#  15]+0.077*[#  16]+0.077*[#  17]+0.016*[#   1]+0.003*[#   9]+
          +0.003*[#  12]+0.001*[#   3]+0.001*[#   4]+0.001*[#   5]+
    |psi|^2 = 0.991
==== e(  15) =    25.43041 eV ==== 
     psi = 0.234*[#   2]+0.081*[#   6]+0.081*[#   7]+0.081*[#   8]+0.021*[#   1]+
          +0.007*[#  15]+0.007*[#  16]+0.007*[#  17]+0.004*[#  14]+0.001*[#  10]+
          +0.001*[#  11]+0.001*[#  13]+0.001*[#   3]+0.001*[#   4]+0.001*[#   5]+
    |psi|^2 = 0.529

 k =   0.0434338976 -0.0144779659 -0.0144779659
==== e(   1) =   -75.60439 eV ==== 
     psi = 0.925*[#   1]+0.024*[#   6]+0.024*[#   7]+0.024*[#   8]+0.002*[#   2]+
    |psi|^2 = 1.000
==== e(   2) =   -41.36645 eV ==== 
     psi = 0.329*[#   3]+0.329*[#   4]+0.329*[#   5]+0.005*[#   2]+0.001*[#   6]+
          +0.001*[#   7]+0.001*[#   8]+
    |psi|^2 = 0.999
==== e(   3) =   -41.33119 eV ==== 
     psi = 0.326*[#   3]+0.326*[#   4]+0.326*[#   5]+0.006*[#   6]+0.006*[#   7]+
          +0.006*[#   8]+
    |psi|^2 = 0.999
==== e(   4) =   -41.31153 eV ==== 
     psi = 0.326*[#   3]+0.326*[#   4]+0.326*[#   5]+0.006*[#   6]+0.006*[#   7]+
          +0.006*[#   8]+
    |psi|^2 = 0.999
==== e(   5) =    -6.32869 eV ==== 
     psi = 0.609*[#  14]+0.225*[#   2]+0.050*[#   6]+0.050*[#   7]+0.050*[#   8]+
          +0.015*[#   1]+
    |psi|^2 = 1.000
==== e(   6) =     8.70642 eV ==== 
     psi = 0.180*[#   9]+0.180*[#  12]+0.178*[#  15]+0.178*[#  16]+0.178*[#  17]+
          +0.037*[#   2]+0.021*[#  14]+0.014*[#  10]+0.014*[#  11]+0.014*[#  13]+
          +0.002*[#   1]+
    |psi|^2 = 0.998
==== e(   7) =     9.39872 eV ==== 
     psi = 0.154*[#  10]+0.154*[#  11]+0.154*[#  13]+0.142*[#  15]+0.142*[#  16]+
          +0.142*[#  17]+0.043*[#   9]+0.043*[#  12]+0.009*[#   2]+0.004*[#  14]+
          +0.003*[#   6]+0.003*[#   7]+0.003*[#   8]+
    |psi|^2 = 0.998
==== e(   8) =     9.44327 eV ==== 
     psi = 0.143*[#  15]+0.143*[#  16]+0.143*[#  17]+0.115*[#  10]+0.115*[#  11]+
          +0.115*[#  13]+0.107*[#   9]+0.107*[#  12]+0.004*[#   6]+0.004*[#   7]+
          +0.004*[#   8]+
    |psi|^2 = 0.998
==== e(   9) =     9.98915 eV ==== 
     psi = 0.323*[#  10]+0.323*[#  11]+0.323*[#  13]+0.007*[#   9]+0.007*[#  12]+
          +0.005*[#  15]+0.005*[#  16]+0.005*[#  17]+
    |psi|^2 = 0.999
==== e(  10) =    10.22147 eV ==== 
     psi = 0.252*[#   9]+0.252*[#  12]+0.160*[#  10]+0.160*[#  11]+0.160*[#  13]+
          +0.005*[#  15]+0.005*[#  16]+0.005*[#  17]+
    |psi|^2 = 0.999
==== e(  11) =    10.67005 eV ==== 
     psi = 0.172*[#  10]+0.172*[#  11]+0.172*[#  13]+0.136*[#  15]+0.136*[#  16]+
          +0.136*[#  17]+0.023*[#   2]+0.017*[#  14]+0.015*[#   9]+0.015*[#  12]+
          +0.001*[#   1]+
    |psi|^2 = 0.998
==== e(  12) =    11.06197 eV ==== 
     psi = 0.179*[#  15]+0.179*[#  16]+0.179*[#  17]+0.141*[#   9]+0.141*[#  12]+
          +0.057*[#  10]+0.057*[#  11]+0.057*[#  13]+0.002*[#   6]+0.002*[#   7]+
          +0.002*[#   8]+
    |psi|^2 = 0.997
==== e(  13) =    11.52041 eV ==== 
     psi = 0.250*[#   9]+0.250*[#  12]+0.147*[#  15]+0.147*[#  16]+0.147*[#  17]+
          +0.023*[#   2]+0.020*[#  14]+0.002*[#  10]+0.002*[#  11]+0.002*[#  13]+
          +0.002*[#   6]+0.002*[#   7]+0.002*[#   8]+
    |psi|^2 = 0.997
==== e(  14) =    15.43824 eV ==== 
     psi = 0.380*[#   2]+0.316*[#  14]+0.048*[#  15]+0.048*[#  16]+0.048*[#  17]+
          +0.044*[#   6]+0.044*[#   7]+0.044*[#   8]+0.016*[#   1]+0.003*[#   9]+
          +0.003*[#  12]+
    |psi|^2 = 0.995
==== e(  15) =    27.55013 eV ==== 
     psi = 0.033*[#   6]+0.033*[#   7]+0.033*[#   8]+0.013*[#   2]+0.002*[#   1]+
    |psi|^2 = 0.122

 k =   0.0144779659  0.0144779659  0.0723898293
==== e(   1) =   -75.60258 eV ==== 
     psi = 0.906*[#   1]+0.031*[#   6]+0.031*[#   7]+0.031*[#   8]+
    |psi|^2 = 1.000
==== e(   2) =   -41.36697 eV ==== 
     psi = 0.330*[#   3]+0.330*[#   4]+0.330*[#   5]+0.005*[#   2]+
    |psi|^2 = 0.998
==== e(   3) =   -41.32707 eV ==== 
     psi = 0.327*[#   3]+0.327*[#   4]+0.327*[#   5]+0.004*[#   6]+0.004*[#   7]+
          +0.004*[#   8]+
    |psi|^2 = 0.998
==== e(   4) =   -41.32037 eV ==== 
     psi = 0.327*[#   3]+0.327*[#   4]+0.327*[#   5]+0.004*[#   6]+0.004*[#   7]+
          +0.004*[#   8]+
    |psi|^2 = 0.998
==== e(   5) =    -6.13873 eV ==== 
     psi = 0.618*[#  14]+0.145*[#   2]+0.072*[#   6]+0.072*[#   7]+0.072*[#   8]+
          +0.015*[#   1]+0.001*[#   9]+0.001*[#  12]+
    |psi|^2 = 1.000
==== e(   6) =     7.76451 eV ==== 
     psi = 0.181*[#  15]+0.181*[#  16]+0.181*[#  17]+0.167*[#   9]+0.167*[#  12]+
          +0.049*[#   2]+0.032*[#  14]+0.006*[#   6]+0.006*[#   7]+0.006*[#   8]+
          +0.006*[#  10]+0.006*[#  11]+0.006*[#  13]+0.004*[#   1]+
    |psi|^2 = 0.998
==== e(   7) =     9.15210 eV ==== 
     psi = 0.157*[#  15]+0.157*[#  16]+0.157*[#  17]+0.147*[#  10]+0.147*[#  11]+
          +0.147*[#  13]+0.028*[#   9]+0.028*[#  12]+0.007*[#   2]+0.007*[#   6]+
          +0.007*[#   7]+0.007*[#   8]+0.004*[#  14]+
    |psi|^2 = 0.998
==== e(   8) =     9.22315 eV ==== 
     psi = 0.161*[#  15]+0.161*[#  16]+0.161*[#  17]+0.116*[#  10]+0.116*[#  11]+
          +0.116*[#  13]+0.072*[#   9]+0.072*[#  12]+0.007*[#   6]+0.007*[#   7]+
          +0.007*[#   8]+
    |psi|^2 = 0.999
==== e(   9) =     9.88926 eV ==== 
     psi = 0.318*[#  10]+0.318*[#  11]+0.318*[#  13]+0.012*[#  15]+0.012*[#  16]+
          +0.012*[#  17]+0.004*[#   9]+0.004*[#  12]+
    |psi|^2 = 0.998
==== e(  10) =    10.35385 eV ==== 
     psi = 0.342*[#   9]+0.342*[#  12]+0.104*[#  10]+0.104*[#  11]+0.104*[#  13]+
    |psi|^2 = 0.999
==== e(  11) =    10.95862 eV ==== 
     psi = 0.189*[#  10]+0.189*[#  11]+0.189*[#  13]+0.112*[#  15]+0.112*[#  16]+
          +0.112*[#  17]+0.024*[#   9]+0.024*[#  12]+0.019*[#   2]+0.018*[#  14]+
          +0.002*[#   6]+0.002*[#   7]+0.002*[#   8]+0.001*[#   1]+
    |psi|^2 = 0.998
==== e(  12) =    11.25235 eV ==== 
     psi = 0.162*[#  15]+0.162*[#  16]+0.162*[#  17]+0.112*[#  10]+0.112*[#  11]+
          +0.112*[#  13]+0.085*[#   9]+0.085*[#  12]+0.002*[#   6]+0.002*[#   7]+
          +0.002*[#   8]+
    |psi|^2 = 0.998
==== e(  13) =    11.84199 eV ==== 
     psi = 0.264*[#   9]+0.264*[#  12]+0.113*[#  15]+0.113*[#  16]+0.113*[#  17]+
          +0.054*[#  14]+0.042*[#   2]+0.006*[#   6]+0.006*[#   7]+0.006*[#   8]+
          +0.005*[#  10]+0.005*[#  11]+0.005*[#  13]+0.003*[#   1]+
    |psi|^2 = 0.996
==== e(  14) =    16.57825 eV ==== 
     psi = 0.270*[#   2]+0.257*[#  14]+0.081*[#  15]+0.081*[#  16]+0.081*[#  17]+
          +0.062*[#   6]+0.062*[#   7]+0.062*[#   8]+0.014*[#   1]+0.011*[#   9]+
          +0.011*[#  12]+
    |psi|^2 = 0.995
==== e(  15) =    26.59966 eV ==== 
     psi = 0.040*[#   6]+0.040*[#   7]+0.040*[#   8]+0.009*[#   2]+0.001*[#  15]+
          +0.001*[#  16]+0.001*[#  17]+
    |psi|^2 = 0.138

 k =  -0.0144779659  0.0434338976  0.1013457610
==== e(   1) =   -75.60575 eV ==== 
     psi = 0.911*[#   1]+0.027*[#   6]+0.027*[#   7]+0.027*[#   8]+0.005*[#   2]+
    |psi|^2 = 1.000
==== e(   2) =   -41.39838 eV ==== 
     psi = 0.329*[#   3]+0.329*[#   4]+0.329*[#   5]+0.003*[#   2]+0.002*[#   6]+
          +0.002*[#   7]+0.002*[#   8]+
    |psi|^2 = 0.998
==== e(   3) =   -41.35971 eV ==== 
     psi = 0.328*[#   3]+0.328*[#   4]+0.328*[#   5]+0.004*[#   6]+0.004*[#   7]+
          +0.004*[#   8]+
    |psi|^2 = 0.999
==== e(   4) =   -41.33132 eV ==== 
     psi = 0.329*[#   3]+0.329*[#   4]+0.329*[#   5]+0.003*[#   6]+0.003*[#   7]+
          +0.003*[#   8]+0.001*[#  15]+0.001*[#  16]+0.001*[#  17]+
    |psi|^2 = 0.998
==== e(   5) =    -5.82450 eV ==== 
     psi = 0.659*[#  14]+0.079*[#   6]+0.079*[#   7]+0.079*[#   8]+0.078*[#   2]+
          +0.011*[#   1]+0.004*[#   9]+0.004*[#  12]+0.001*[#   3]+0.001*[#   4]+
          +0.001*[#   5]+
    |psi|^2 = 1.000
==== e(   6) =     6.93401 eV ==== 
     psi = 0.184*[#  15]+0.184*[#  16]+0.184*[#  17]+0.114*[#   9]+0.114*[#  12]+
          +0.068*[#   2]+0.036*[#  14]+0.018*[#  10]+0.018*[#  11]+0.018*[#  13]+
          +0.018*[#   6]+0.018*[#   7]+0.018*[#   8]+0.006*[#   1]+
    |psi|^2 = 0.999
==== e(   7) =     8.38020 eV ==== 
     psi = 0.173*[#  15]+0.173*[#  16]+0.173*[#  17]+0.149*[#   9]+0.149*[#  12]+
          +0.051*[#  10]+0.051*[#  11]+0.051*[#  13]+0.014*[#   2]+0.006*[#  14]+
          +0.003*[#   6]+0.003*[#   7]+0.003*[#   8]+
    |psi|^2 = 0.999
==== e(   8) =     8.70048 eV ==== 
     psi = 0.161*[#  15]+0.161*[#  16]+0.161*[#  17]+0.129*[#  10]+0.129*[#  11]+
          +0.129*[#  13]+0.046*[#   9]+0.046*[#  12]+0.012*[#   6]+0.012*[#   7]+
          +0.012*[#   8]+
    |psi|^2 = 0.999
==== e(   9) =    10.03739 eV ==== 
     psi = 0.304*[#  10]+0.304*[#  11]+0.304*[#  13]+0.021*[#  15]+0.021*[#  16]+
          +0.021*[#  17]+0.011*[#   9]+0.011*[#  12]+0.002*[#   2]+0.002*[#  14]+
    |psi|^2 = 0.998
==== e(  10) =    10.56555 eV ==== 
     psi = 0.246*[#   9]+0.246*[#  12]+0.168*[#  10]+0.168*[#  11]+0.168*[#  13]+
          +0.002*[#  14]+
    |psi|^2 = 1.000
==== e(  11) =    11.12282 eV ==== 
     psi = 0.219*[#  10]+0.219*[#  11]+0.219*[#  13]+0.072*[#  15]+0.072*[#  16]+
          +0.072*[#  17]+0.036*[#   9]+0.036*[#  12]+0.022*[#   2]+0.020*[#  14]+
          +0.003*[#   6]+0.003*[#   7]+0.003*[#   8]+0.001*[#   1]+
    |psi|^2 = 0.998
==== e(  12) =    11.54664 eV ==== 
     psi = 0.134*[#   9]+0.134*[#  12]+0.127*[#  15]+0.127*[#  16]+0.127*[#  17]+
          +0.104*[#  10]+0.104*[#  11]+0.104*[#  13]+0.013*[#  14]+0.010*[#   2]+
          +0.004*[#   6]+0.004*[#   7]+0.004*[#   8]+
    |psi|^2 = 0.998
==== e(  13) =    12.56394 eV ==== 
     psi = 0.248*[#   9]+0.248*[#  12]+0.138*[#  15]+0.138*[#  16]+0.138*[#  17]+
          +0.036*[#  14]+0.010*[#   2]+0.007*[#   6]+0.007*[#   7]+0.007*[#   8]+
          +0.004*[#  10]+0.004*[#  11]+0.004*[#  13]+0.002*[#   1]+
    |psi|^2 = 0.994
==== e(  14) =    17.99709 eV ==== 
     psi = 0.213*[#   2]+0.205*[#  14]+0.094*[#  15]+0.094*[#  16]+0.094*[#  17]+
          +0.085*[#   6]+0.085*[#   7]+0.085*[#   8]+0.011*[#   9]+0.011*[#  12]+
          +0.011*[#   1]+0.001*[#   3]+0.001*[#   4]+0.001*[#   5]+
    |psi|^2 = 0.992
==== e(  15) =    25.34901 eV ==== 
     psi = 0.119*[#   6]+0.119*[#   7]+0.119*[#   8]+0.044*[#   2]+0.006*[#  15]+
          +0.006*[#  16]+0.006*[#  17]+0.004*[#   1]+0.002*[#   3]+0.002*[#   4]+
          +0.002*[#   5]+0.002*[#  10]+0.002*[#  11]+0.002*[#  13]+0.001*[#  14]+
    |psi|^2 = 0.436

 k =  -0.0434338976  0.0723898293  0.1303016927
==== e(   1) =   -75.60821 eV ==== 
     psi = 0.944*[#   1]+0.015*[#   6]+0.015*[#   7]+0.015*[#   8]+0.007*[#   2]+
          +0.001*[#  15]+0.001*[#  16]+0.001*[#  17]+
    |psi|^2 = 1.000
==== e(   2) =   -41.43606 eV ==== 
     psi = 0.328*[#   3]+0.328*[#   4]+0.328*[#   5]+0.003*[#   6]+0.003*[#   7]+
          +0.003*[#   8]+0.001*[#   2]+
    |psi|^2 = 0.998
==== e(   3) =   -41.38532 eV ==== 
     psi = 0.329*[#   3]+0.329*[#   4]+0.329*[#   5]+0.003*[#   6]+0.003*[#   7]+
          +0.003*[#   8]+
    |psi|^2 = 0.998
==== e(   4) =   -41.35132 eV ==== 
     psi = 0.329*[#   3]+0.329*[#   4]+0.329*[#   5]+0.003*[#   6]+0.003*[#   7]+
          +0.003*[#   8]+
    |psi|^2 = 0.999
==== e(   5) =    -5.43872 eV ==== 
     psi = 0.741*[#  14]+0.069*[#   6]+0.069*[#   7]+0.069*[#   8]+0.027*[#   2]+
          +0.007*[#   9]+0.007*[#  12]+0.005*[#   1]+0.002*[#   3]+0.002*[#   4]+
          +0.002*[#   5]+
    |psi|^2 = 1.000
==== e(   6) =     6.21070 eV ==== 
     psi = 0.190*[#  15]+0.190*[#  16]+0.190*[#  17]+0.114*[#   2]+0.048*[#  10]+
          +0.048*[#  11]+0.048*[#  13]+0.034*[#   9]+0.034*[#  12]+0.025*[#   6]+
          +0.025*[#   7]+0.025*[#   8]+0.022*[#  14]+0.006*[#   1]+
    |psi|^2 = 0.999
==== e(   7) =     7.62690 eV ==== 
     psi = 0.178*[#   9]+0.178*[#  12]+0.172*[#  15]+0.172*[#  16]+0.172*[#  17]+
          +0.034*[#  10]+0.034*[#  11]+0.034*[#  13]+0.009*[#   2]+0.005*[#   6]+
          +0.005*[#   7]+0.005*[#   8]+0.001*[#  14]+
    |psi|^2 = 0.999
==== e(   8) =     7.98097 eV ==== 
     psi = 0.171*[#  15]+0.171*[#  16]+0.171*[#  17]+0.157*[#   9]+0.157*[#  12]+
          +0.047*[#  10]+0.047*[#  11]+0.047*[#  13]+0.009*[#   6]+0.009*[#   7]+
          +0.009*[#   8]+
    |psi|^2 = 0.999
==== e(   9) =    10.32650 eV ==== 
     psi = 0.291*[#  10]+0.291*[#  11]+0.291*[#  13]+0.038*[#   9]+0.038*[#  12]+
          +0.013*[#  15]+0.013*[#  16]+0.013*[#  17]+0.005*[#  14]+0.004*[#   2]+
    |psi|^2 = 0.999
==== e(  10) =    10.77341 eV ==== 
     psi = 0.266*[#  10]+0.266*[#  11]+0.266*[#  13]+0.097*[#   9]+0.097*[#  12]+
          +0.002*[#  14]+
    |psi|^2 = 1.000
==== e(  11) =    11.21686 eV ==== 
     psi = 0.270*[#  10]+0.270*[#  11]+0.270*[#  13]+0.050*[#  15]+0.050*[#  16]+
          +0.050*[#  17]+0.023*[#   2]+0.006*[#  14]+0.002*[#   9]+0.002*[#  12]+
          +0.002*[#   6]+0.002*[#   7]+0.002*[#   8]+
    |psi|^2 = 0.999
==== e(  12) =    12.33672 eV ==== 
     psi = 0.225*[#   9]+0.225*[#  12]+0.132*[#  15]+0.132*[#  16]+0.132*[#  17]+
          +0.036*[#  10]+0.036*[#  11]+0.036*[#  13]+0.015*[#  14]+0.008*[#   6]+
          +0.008*[#   7]+0.008*[#   8]+0.004*[#   2]+
    |psi|^2 = 0.997
==== e(  13) =    13.10311 eV ==== 
     psi = 0.253*[#   9]+0.253*[#  12]+0.145*[#  15]+0.145*[#  16]+0.145*[#  17]+
          +0.020*[#  14]+0.006*[#   6]+0.006*[#   7]+0.006*[#   8]+0.004*[#  10]+
          +0.004*[#  11]+0.004*[#  13]+
    |psi|^2 = 0.993
==== e(  14) =    19.50364 eV ==== 
     psi = 0.160*[#  14]+0.153*[#   2]+0.135*[#   6]+0.135*[#   7]+0.135*[#   8]+
          +0.077*[#  15]+0.077*[#  16]+0.077*[#  17]+0.006*[#   1]+0.006*[#   9]+
          +0.006*[#  12]+0.001*[#   3]+0.001*[#   4]+0.001*[#   5]+
    |psi|^2 = 0.972
==== e(  15) =    23.67175 eV ==== 
     psi = 0.397*[#   2]+0.098*[#   6]+0.098*[#   7]+0.098*[#   8]+0.026*[#  15]+
          +0.026*[#  16]+0.026*[#  17]+0.018*[#   1]+0.006*[#  14]+0.001*[#  10]+
          +0.001*[#  11]+0.001*[#  13]+
    |psi|^2 = 0.799

 k =   0.1592576244 -0.1303016927 -0.0723898293
==== e(   1) =   -75.60952 eV ==== 
     psi = 0.981*[#   1]+0.006*[#   2]+0.003*[#  15]+0.003*[#  16]+0.003*[#  17]+
          +0.002*[#   6]+0.002*[#   7]+0.002*[#   8]+
    |psi|^2 = 1.000
==== e(   2) =   -41.46469 eV ==== 
     psi = 0.329*[#   3]+0.329*[#   4]+0.329*[#   5]+0.003*[#   6]+0.003*[#   7]+
          +0.003*[#   8]+0.001*[#  14]+
    |psi|^2 = 0.998
==== e(   3) =   -41.37768 eV ==== 
     psi = 0.330*[#   3]+0.330*[#   4]+0.330*[#   5]+0.002*[#   6]+0.002*[#   7]+
          +0.002*[#   8]+
    |psi|^2 = 0.998
==== e(   4) =   -41.36942 eV ==== 
     psi = 0.330*[#   3]+0.330*[#   4]+0.330*[#   5]+0.003*[#   6]+0.003*[#   7]+
          +0.003*[#   8]+
    |psi|^2 = 0.999
==== e(   5) =    -5.22192 eV ==== 
     psi = 0.802*[#  14]+0.058*[#   6]+0.058*[#   7]+0.058*[#   8]+0.009*[#   9]+
          +0.009*[#  12]+0.002*[#   3]+0.002*[#   4]+0.002*[#   5]+
    |psi|^2 = 0.999
==== e(   6) =     5.81725 eV ==== 
     psi = 0.197*[#  15]+0.197*[#  16]+0.197*[#  17]+0.154*[#   2]+0.065*[#  10]+
          +0.065*[#  11]+0.065*[#  13]+0.017*[#   6]+0.017*[#   7]+0.017*[#   8]+
          +0.004*[#   1]+0.001*[#   9]+0.001*[#  12]+
    |psi|^2 = 1.000
==== e(   7) =     7.40187 eV ==== 
     psi = 0.174*[#  15]+0.174*[#  16]+0.174*[#  17]+0.171*[#   9]+0.171*[#  12]+
          +0.030*[#  10]+0.030*[#  11]+0.030*[#  13]+0.015*[#   6]+0.015*[#   7]+
          +0.015*[#   8]+
    |psi|^2 = 0.999
==== e(   8) =     7.55765 eV ==== 
     psi = 0.213*[#   9]+0.213*[#  12]+0.169*[#  15]+0.169*[#  16]+0.169*[#  17]+
          +0.017*[#  10]+0.017*[#  11]+0.017*[#  13]+0.005*[#   6]+0.005*[#   7]+
          +0.005*[#   8]+
    |psi|^2 = 0.999
==== e(   9) =    10.62245 eV ==== 
     psi = 0.283*[#  10]+0.283*[#  11]+0.283*[#  13]+0.063*[#   9]+0.063*[#  12]+
          +0.006*[#  14]+0.005*[#  15]+0.005*[#  16]+0.005*[#  17]+
    |psi|^2 = 0.999
==== e(  10) =    10.79494 eV ==== 
     psi = 0.309*[#  10]+0.309*[#  11]+0.309*[#  13]+0.033*[#   9]+0.033*[#  12]+
          +0.002*[#  15]+0.002*[#  16]+0.002*[#  17]+
    |psi|^2 = 1.000
==== e(  11) =    11.29105 eV ==== 
     psi = 0.268*[#  10]+0.268*[#  11]+0.268*[#  13]+0.054*[#  15]+0.054*[#  16]+
          +0.054*[#  17]+0.029*[#   2]+0.002*[#   9]+0.002*[#  12]+
    |psi|^2 = 0.999
==== e(  12) =    12.81006 eV ==== 
     psi = 0.251*[#   9]+0.251*[#  12]+0.124*[#  15]+0.124*[#  16]+0.124*[#  17]+
          +0.029*[#  14]+0.019*[#  10]+0.019*[#  11]+0.019*[#  13]+0.011*[#   6]+
          +0.011*[#   7]+0.011*[#   8]+
    |psi|^2 = 0.994
==== e(  13) =    13.26582 eV ==== 
     psi = 0.251*[#   9]+0.251*[#  12]+0.153*[#  15]+0.153*[#  16]+0.153*[#  17]+
          +0.006*[#  10]+0.006*[#  11]+0.006*[#  13]+0.004*[#   2]+0.003*[#   6]+
          +0.003*[#   7]+0.003*[#   8]+
    |psi|^2 = 0.995
==== e(  14) =    20.44809 eV ==== 
     psi = 0.225*[#   6]+0.225*[#   7]+0.225*[#   8]+0.138*[#  14]+0.026*[#  15]+
          +0.026*[#  16]+0.026*[#  17]+0.011*[#   2]+0.004*[#   9]+0.004*[#  12]+
          +0.002*[#  10]+0.002*[#  11]+0.002*[#  13]+
    |psi|^2 = 0.918
==== e(  15) =    22.55596 eV ==== 
     psi = 0.683*[#   2]+0.070*[#  15]+0.070*[#  16]+0.070*[#  17]+0.021*[#   6]+
          +0.021*[#   7]+0.021*[#   8]+0.009*[#   1]+
    |psi|^2 = 0.967

 k =   0.1303016927 -0.1013457610 -0.0434338976
==== e(   1) =   -75.60791 eV ==== 
     psi = 0.959*[#   1]+0.009*[#   6]+0.009*[#   7]+0.009*[#   8]+0.007*[#   2]+
          +0.002*[#  15]+0.002*[#  16]+0.002*[#  17]+
    |psi|^2 = 1.000
==== e(   2) =   -41.44517 eV ==== 
     psi = 0.329*[#   3]+0.329*[#   4]+0.329*[#   5]+0.003*[#   6]+0.003*[#   7]+
          +0.003*[#   8]+
    |psi|^2 = 0.998
==== e(   3) =   -41.37236 eV ==== 
     psi = 0.330*[#   3]+0.330*[#   4]+0.330*[#   5]+0.002*[#   6]+0.002*[#   7]+
          +0.002*[#   8]+0.001*[#  15]+0.001*[#  16]+0.001*[#  17]+
    |psi|^2 = 0.998
==== e(   4) =   -41.36205 eV ==== 
     psi = 0.329*[#   3]+0.329*[#   4]+0.329*[#   5]+0.003*[#   6]+0.003*[#   7]+
          +0.003*[#   8]+
    |psi|^2 = 0.999
==== e(   5) =    -5.32520 eV ==== 
     psi = 0.767*[#  14]+0.066*[#   6]+0.066*[#   7]+0.066*[#   8]+0.012*[#   2]+
          +0.007*[#   9]+0.007*[#  12]+0.003*[#   1]+0.002*[#   3]+0.002*[#   4]+
          +0.002*[#   5]+
    |psi|^2 = 1.000
==== e(   6) =     5.99080 eV ==== 
     psi = 0.192*[#  15]+0.192*[#  16]+0.192*[#  17]+0.138*[#   2]+0.056*[#  10]+
          +0.056*[#  11]+0.056*[#  13]+0.022*[#   9]+0.022*[#  12]+0.018*[#   6]+
          +0.018*[#   7]+0.018*[#   8]+0.014*[#  14]+0.005*[#   1]+
    |psi|^2 = 0.999
==== e(   7) =     7.49194 eV ==== 
     psi = 0.217*[#   9]+0.217*[#  12]+0.168*[#  15]+0.168*[#  16]+0.168*[#  17]+
          +0.015*[#  10]+0.015*[#  11]+0.015*[#  13]+0.004*[#   6]+0.004*[#   7]+
          +0.004*[#   8]+0.002*[#   2]+
    |psi|^2 = 0.999
==== e(   8) =     7.71126 eV ==== 
     psi = 0.174*[#  15]+0.174*[#  16]+0.174*[#  17]+0.132*[#   9]+0.132*[#  12]+
          +0.055*[#  10]+0.055*[#  11]+0.055*[#  13]+0.015*[#   6]+0.015*[#   7]+
          +0.015*[#   8]+
    |psi|^2 = 0.999
==== e(   9) =    10.55942 eV ==== 
     psi = 0.300*[#  10]+0.300*[#  11]+0.300*[#  13]+0.039*[#   9]+0.039*[#  12]+
          +0.005*[#  15]+0.005*[#  16]+0.005*[#  17]+0.003*[#  14]+0.001*[#   2]+
    |psi|^2 = 0.999
==== e(  10) =    10.75555 eV ==== 
     psi = 0.266*[#  10]+0.266*[#  11]+0.266*[#  13]+0.095*[#   9]+0.095*[#  12]+
          +0.004*[#  14]+0.002*[#  15]+0.002*[#  16]+0.002*[#  17]+
    |psi|^2 = 1.000
==== e(  11) =    11.26046 eV ==== 
     psi = 0.262*[#  10]+0.262*[#  11]+0.262*[#  13]+0.056*[#  15]+0.056*[#  16]+
          +0.056*[#  17]+0.028*[#   2]+0.004*[#   9]+0.004*[#  12]+0.004*[#  14]+
          +0.001*[#   6]+0.001*[#   7]+0.001*[#   8]+
    |psi|^2 = 0.999
==== e(  12) =    12.38718 eV ==== 
     psi = 0.227*[#   9]+0.227*[#  12]+0.121*[#  15]+0.121*[#  16]+0.121*[#  17]+
          +0.040*[#  10]+0.040*[#  11]+0.040*[#  13]+0.023*[#  14]+0.009*[#   6]+
          +0.009*[#   7]+0.009*[#   8]+0.008*[#   2]+
    |psi|^2 = 0.996
==== e(  13) =    13.46240 eV ==== 
     psi = 0.251*[#   9]+0.251*[#  12]+0.158*[#  15]+0.158*[#  16]+0.158*[#  17]+
          +0.004*[#  14]+0.002*[#  10]+0.002*[#  11]+0.002*[#  13]+0.002*[#   6]+
          +0.002*[#   7]+0.002*[#   8]+
    |psi|^2 = 0.994
==== e(  14) =    19.95734 eV ==== 
     psi = 0.171*[#   6]+0.171*[#   7]+0.171*[#   8]+0.152*[#  14]+0.093*[#   2]+
          +0.059*[#  15]+0.059*[#  16]+0.059*[#  17]+0.005*[#   1]+0.005*[#   9]+
          +0.005*[#  12]+0.001*[#   3]+0.001*[#   4]+0.001*[#   5]+0.001*[#  10]+
          +0.001*[#  11]+0.001*[#  13]+
    |psi|^2 = 0.955
==== e(  15) =    23.19098 eV ==== 
     psi = 0.495*[#   2]+0.084*[#   6]+0.084*[#   7]+0.084*[#   8]+0.041*[#  15]+
          +0.041*[#  16]+0.041*[#  17]+0.014*[#   1]+0.004*[#  14]+0.001*[#  10]+
          +0.001*[#  11]+0.001*[#  13]+
    |psi|^2 = 0.892

 k =   0.1013457610 -0.0723898293 -0.0144779659
==== e(   1) =   -75.60865 eV ==== 
     psi = 0.919*[#   1]+0.024*[#   6]+0.024*[#   7]+0.024*[#   8]+0.006*[#   2]+
          +0.001*[#  15]+0.001*[#  16]+0.001*[#  17]+
    |psi|^2 = 1.000
==== e(   2) =   -41.41041 eV ==== 
     psi = 0.329*[#   3]+0.329*[#   4]+0.329*[#   5]+0.003*[#   6]+0.003*[#   7]+
          +0.003*[#   8]+0.003*[#   2]+
    |psi|^2 = 0.998
==== e(   3) =   -41.36961 eV ==== 
     psi = 0.327*[#   3]+0.327*[#   4]+0.327*[#   5]+0.005*[#   6]+0.005*[#   7]+
          +0.005*[#   8]+
    |psi|^2 = 0.999
==== e(   4) =   -41.36001 eV ==== 
     psi = 0.329*[#   3]+0.329*[#   4]+0.329*[#   5]+0.003*[#   6]+0.003*[#   7]+
          +0.003*[#   8]+0.001*[#  15]+0.001*[#  16]+0.001*[#  17]+
    |psi|^2 = 0.998
==== e(   5) =    -5.67976 eV ==== 
     psi = 0.680*[#  14]+0.081*[#   6]+0.081*[#   7]+0.081*[#   8]+0.054*[#   2]+
          +0.010*[#   1]+0.003*[#   9]+0.003*[#  12]+0.002*[#   3]+0.002*[#   4]+
          +0.002*[#   5]+
    |psi|^2 = 1.000
==== e(   6) =     6.66342 eV ==== 
     psi = 0.187*[#  15]+0.187*[#  16]+0.187*[#  17]+0.100*[#   2]+0.069*[#   9]+
          +0.069*[#  12]+0.038*[#  14]+0.036*[#  10]+0.036*[#  11]+0.036*[#  13]+
          +0.015*[#   6]+0.015*[#   7]+0.015*[#   8]+0.006*[#   1]+
    |psi|^2 = 0.999
==== e(   7) =     7.84354 eV ==== 
     psi = 0.233*[#   9]+0.233*[#  12]+0.167*[#  15]+0.167*[#  16]+0.167*[#  17]+
          +0.009*[#  10]+0.009*[#  11]+0.009*[#  13]+0.005*[#   2]+0.002*[#  14]+
    |psi|^2 = 0.999
==== e(   8) =     8.33689 eV ==== 
     psi = 0.166*[#  15]+0.166*[#  16]+0.166*[#  17]+0.132*[#  10]+0.132*[#  11]+
          +0.132*[#  13]+0.026*[#   9]+0.026*[#  12]+0.017*[#   6]+0.017*[#   7]+
          +0.017*[#   8]+
    |psi|^2 = 0.999
==== e(   9) =    10.30103 eV ==== 
     psi = 0.320*[#  10]+0.320*[#  11]+0.320*[#  13]+0.008*[#   9]+0.008*[#  12]+
          +0.007*[#  15]+0.007*[#  16]+0.007*[#  17]+
    |psi|^2 = 0.999
==== e(  10) =    10.65110 eV ==== 
     psi = 0.221*[#   9]+0.221*[#  12]+0.181*[#  10]+0.181*[#  11]+0.181*[#  13]+
          +0.006*[#  14]+0.003*[#   2]+0.002*[#  15]+0.002*[#  16]+0.002*[#  17]+
    |psi|^2 = 1.000
==== e(  11) =    11.18631 eV ==== 
     psi = 0.220*[#  10]+0.220*[#  11]+0.220*[#  13]+0.075*[#  15]+0.075*[#  16]+
          +0.075*[#  17]+0.031*[#   9]+0.031*[#  12]+0.024*[#   2]+0.016*[#  14]+
          +0.003*[#   6]+0.003*[#   7]+0.003*[#   8]+
    |psi|^2 = 0.998
==== e(  12) =    11.62453 eV ==== 
     psi = 0.153*[#   9]+0.153*[#  12]+0.114*[#  15]+0.114*[#  16]+0.114*[#  17]+
          +0.098*[#  10]+0.098*[#  11]+0.098*[#  13]+0.020*[#  14]+0.017*[#   2]+
          +0.005*[#   6]+0.005*[#   7]+0.005*[#   8]+
    |psi|^2 = 0.997
==== e(  13) =    13.18338 eV ==== 
     psi = 0.246*[#   9]+0.246*[#  12]+0.161*[#  15]+0.161*[#  16]+0.161*[#  17]+
          +0.008*[#  14]+0.002*[#   6]+0.002*[#   7]+0.002*[#   8]+
    |psi|^2 = 0.994
==== e(  14) =    18.48152 eV ==== 
     psi = 0.202*[#  14]+0.174*[#   2]+0.106*[#   6]+0.106*[#   7]+0.106*[#   8]+
          +0.088*[#  15]+0.088*[#  16]+0.088*[#  17]+0.011*[#   1]+0.007*[#   9]+
          +0.007*[#  12]+0.002*[#   3]+0.002*[#   4]+0.002*[#   5]+
    |psi|^2 = 0.988
==== e(  15) =    24.76774 eV ==== 
     psi = 0.176*[#   6]+0.176*[#   7]+0.176*[#   8]+0.074*[#   2]+0.013*[#  15]+
          +0.013*[#  16]+0.013*[#  17]+0.005*[#   1]+0.003*[#   3]+0.003*[#   4]+
          +0.003*[#   5]+0.002*[#  10]+0.002*[#  11]+0.002*[#  13]+0.001*[#  14]+
    |psi|^2 = 0.662

 k =   0.0723898293 -0.0434338976  0.0144779659
==== e(   1) =   -75.60726 eV ==== 
     psi = 0.905*[#   1]+0.030*[#   6]+0.030*[#   7]+0.030*[#   8]+0.002*[#   2]+
    |psi|^2 = 1.000
==== e(   2) =   -41.36810 eV ==== 
     psi = 0.330*[#   3]+0.330*[#   4]+0.330*[#   5]+0.004*[#   2]+0.002*[#   6]+
          +0.002*[#   7]+0.002*[#   8]+
    |psi|^2 = 0.998
==== e(   3) =   -41.36073 eV ==== 
     psi = 0.327*[#   3]+0.327*[#   4]+0.327*[#   5]+0.005*[#   6]+0.005*[#   7]+
          +0.005*[#   8]+
    |psi|^2 = 0.999
==== e(   4) =   -41.34464 eV ==== 
     psi = 0.328*[#   3]+0.328*[#   4]+0.328*[#   5]+0.004*[#   6]+0.004*[#   7]+
          +0.004*[#   8]+
    |psi|^2 = 0.999
==== e(   5) =    -6.04445 eV ==== 
     psi = 0.623*[#  14]+0.118*[#   2]+0.079*[#   6]+0.079*[#   7]+0.079*[#   8]+
          +0.015*[#   1]+0.001*[#   3]+0.001*[#   4]+0.001*[#   5]+
    |psi|^2 = 1.000
==== e(   6) =     7.60835 eV ==== 
     psi = 0.185*[#  15]+0.185*[#  16]+0.185*[#  17]+0.113*[#   9]+0.113*[#  12]+
          +0.071*[#   2]+0.040*[#  14]+0.028*[#  10]+0.028*[#  11]+0.028*[#  13]+
          +0.006*[#   6]+0.006*[#   7]+0.006*[#   8]+0.004*[#   1]+
    |psi|^2 = 0.998
==== e(   7) =     8.50882 eV ==== 
     psi = 0.187*[#   9]+0.187*[#  12]+0.166*[#  15]+0.166*[#  16]+0.166*[#  17]+
          +0.035*[#  10]+0.035*[#  11]+0.035*[#  13]+0.012*[#   2]+0.005*[#  14]+
          +0.001*[#   6]+0.001*[#   7]+0.001*[#   8]+
    |psi|^2 = 0.999
==== e(   8) =     8.89474 eV ==== 
     psi = 0.152*[#  15]+0.152*[#  16]+0.152*[#  17]+0.142*[#  10]+0.142*[#  11]+
          +0.142*[#  13]+0.044*[#   9]+0.044*[#  12]+0.009*[#   6]+0.009*[#   7]+
          +0.009*[#   8]+
    |psi|^2 = 0.999
==== e(   9) =    10.10284 eV ==== 
     psi = 0.319*[#  10]+0.319*[#  11]+0.319*[#  13]+0.008*[#   9]+0.008*[#  12]+
          +0.008*[#  15]+0.008*[#  16]+0.008*[#  17]+
    |psi|^2 = 0.999
==== e(  10) =    10.41904 eV ==== 
     psi = 0.207*[#   9]+0.207*[#  12]+0.193*[#  10]+0.193*[#  11]+0.193*[#  13]+
          +0.001*[#  15]+0.001*[#  16]+0.001*[#  17]+
    |psi|^2 = 0.999
==== e(  11) =    10.92768 eV ==== 
     psi = 0.202*[#  10]+0.202*[#  11]+0.202*[#  13]+0.086*[#  15]+0.086*[#  16]+
          +0.086*[#  17]+0.035*[#   9]+0.035*[#  12]+0.026*[#   2]+0.024*[#  14]+
          +0.003*[#   6]+0.003*[#   7]+0.003*[#   8]+0.001*[#   1]+
    |psi|^2 = 0.998
==== e(  12) =    11.44469 eV ==== 
     psi = 0.155*[#   9]+0.155*[#  12]+0.142*[#  15]+0.142*[#  16]+0.142*[#  17]+
          +0.075*[#  10]+0.075*[#  11]+0.075*[#  13]+0.013*[#  14]+0.012*[#   2]+
          +0.003*[#   6]+0.003*[#   7]+0.003*[#   8]+
    |psi|^2 = 0.997
==== e(  13) =    12.43351 eV ==== 
     psi = 0.241*[#   9]+0.241*[#  12]+0.159*[#  15]+0.159*[#  16]+0.159*[#  17]+
          +0.014*[#  14]+0.007*[#   2]+0.003*[#   6]+0.003*[#   7]+0.003*[#   8]+
          +0.002*[#  10]+0.002*[#  11]+0.002*[#  13]+
    |psi|^2 = 0.995
==== e(  14) =    16.89855 eV ==== 
     psi = 0.258*[#  14]+0.237*[#   2]+0.080*[#  15]+0.080*[#  16]+0.080*[#  17]+
          +0.076*[#   6]+0.076*[#   7]+0.076*[#   8]+0.015*[#   1]+0.007*[#   9]+
          +0.007*[#  12]+
    |psi|^2 = 0.994
==== e(  15) =    26.01979 eV ==== 
     psi = 0.114*[#   6]+0.114*[#   7]+0.114*[#   8]+0.045*[#   2]+0.005*[#   1]+
          +0.004*[#  15]+0.004*[#  16]+0.004*[#  17]+0.002*[#   3]+0.002*[#   4]+
          +0.002*[#   5]+0.002*[#  10]+0.002*[#  11]+0.002*[#  13]+
    |psi|^2 = 0.417

 k =   0.0144779659  0.0144779659  0.1303016927
==== e(   1) =   -75.59935 eV ==== 
     psi = 0.923*[#   1]+0.023*[#   6]+0.023*[#   7]+0.023*[#   8]+0.007*[#   2]+
    |psi|^2 = 1.000
==== e(   2) =   -41.38973 eV ==== 
     psi = 0.329*[#   3]+0.329*[#   4]+0.329*[#   5]+0.003*[#   2]+0.002*[#   6]+
          +0.002*[#   7]+0.002*[#   8]+
    |psi|^2 = 0.998
==== e(   3) =   -41.33635 eV ==== 
     psi = 0.330*[#   3]+0.330*[#   4]+0.330*[#   5]+0.002*[#   6]+0.002*[#   7]+
          +0.002*[#   8]+0.001*[#  15]+0.001*[#  16]+0.001*[#  17]+
    |psi|^2 = 0.998
==== e(   4) =   -41.32944 eV ==== 
     psi = 0.329*[#   3]+0.329*[#   4]+0.329*[#   5]+0.002*[#   6]+0.002*[#   7]+
          +0.002*[#   8]+0.001*[#  15]+0.001*[#  16]+0.001*[#  17]+
    |psi|^2 = 0.998
==== e(   5) =    -5.68427 eV ==== 
     psi = 0.706*[#  14]+0.065*[#   2]+0.065*[#   6]+0.065*[#   7]+0.065*[#   8]+
          +0.011*[#   9]+0.011*[#  12]+0.007*[#   1]+0.001*[#   3]+0.001*[#   4]+
          +0.001*[#   5]+
    |psi|^2 = 1.000
==== e(   6) =     6.68373 eV ==== 
     psi = 0.186*[#  15]+0.186*[#  16]+0.186*[#  17]+0.125*[#   9]+0.125*[#  12]+
          +0.045*[#   2]+0.034*[#   6]+0.034*[#   7]+0.034*[#   8]+0.025*[#  14]+
          +0.008*[#   1]+0.003*[#  10]+0.003*[#  11]+0.003*[#  13]+0.001*[#   3]+
          +0.001*[#   4]+0.001*[#   5]+
    |psi|^2 = 0.998
==== e(   7) =     8.87337 eV ==== 
     psi = 0.173*[#  15]+0.173*[#  16]+0.173*[#  17]+0.133*[#  10]+0.133*[#  11]+
          +0.133*[#  13]+0.017*[#   9]+0.017*[#  12]+0.013*[#   6]+0.013*[#   7]+
          +0.013*[#   8]+0.005*[#   2]+0.003*[#  14]+
    |psi|^2 = 0.998
==== e(   8) =     9.00929 eV ==== 
     psi = 0.203*[#  15]+0.203*[#  16]+0.203*[#  17]+0.081*[#  10]+0.081*[#  11]+
          +0.081*[#  13]+0.053*[#   9]+0.053*[#  12]+0.014*[#   6]+0.014*[#   7]+
          +0.014*[#   8]+
    |psi|^2 = 0.999
==== e(   9) =     9.63549 eV ==== 
     psi = 0.288*[#  10]+0.288*[#  11]+0.288*[#  13]+0.038*[#  15]+0.038*[#  16]+
          +0.038*[#  17]+0.005*[#   9]+0.005*[#  12]+0.001*[#   2]+0.001*[#   6]+
          +0.001*[#   7]+0.001*[#   8]+0.001*[#  14]+
    |psi|^2 = 0.997
==== e(  10) =    10.56267 eV ==== 
     psi = 0.398*[#   9]+0.398*[#  12]+0.065*[#  10]+0.065*[#  11]+0.065*[#  13]+
          +0.002*[#  15]+0.002*[#  16]+0.002*[#  17]+
    |psi|^2 = 0.999
==== e(  11) =    11.26672 eV ==== 
     psi = 0.234*[#  10]+0.234*[#  11]+0.234*[#  13]+0.076*[#  15]+0.076*[#  16]+
          +0.076*[#  17]+0.020*[#   9]+0.020*[#  12]+0.010*[#  14]+0.009*[#   2]+
          +0.003*[#   6]+0.003*[#   7]+0.003*[#   8]+
    |psi|^2 = 0.999
==== e(  12) =    11.41595 eV ==== 
     psi = 0.187*[#  10]+0.187*[#  11]+0.187*[#  13]+0.111*[#  15]+0.111*[#  16]+
          +0.111*[#  17]+0.049*[#   9]+0.049*[#  12]+0.003*[#   6]+0.003*[#   7]+
          +0.003*[#   8]+
    |psi|^2 = 0.999
==== e(  13) =    11.94438 eV ==== 
     psi = 0.306*[#   9]+0.306*[#  12]+0.090*[#  14]+0.067*[#  15]+0.067*[#  16]+
          +0.067*[#  17]+0.025*[#   2]+0.014*[#   6]+0.014*[#   7]+0.014*[#   8]+
          +0.006*[#  10]+0.006*[#  11]+0.006*[#  13]+0.003*[#   1]+
    |psi|^2 = 0.993
==== e(  14) =    18.88368 eV ==== 
     psi = 0.293*[#   2]+0.146*[#  14]+0.101*[#  15]+0.101*[#  16]+0.101*[#  17]+
          +0.071*[#   6]+0.071*[#   7]+0.071*[#   8]+0.015*[#   9]+0.015*[#  12]+
          +0.004*[#   1]+
    |psi|^2 = 0.991
==== e(  15) =    25.24048 eV ==== 
     psi = 0.032*[#   6]+0.032*[#   7]+0.032*[#   8]+0.009*[#   2]+0.002*[#  15]+
          +0.002*[#  16]+0.002*[#  17]+0.001*[#  10]+0.001*[#  11]+0.001*[#  13]+
    |psi|^2 = 0.118

 k =  -0.0144779659  0.0434338976  0.1592576244
==== e(   1) =   -75.60502 eV ==== 
     psi = 0.951*[#   1]+0.013*[#   6]+0.013*[#   7]+0.013*[#   8]+0.009*[#   2]+
    |psi|^2 = 1.000
==== e(   2) =   -41.43454 eV ==== 
     psi = 0.328*[#   3]+0.328*[#   4]+0.328*[#   5]+0.003*[#   6]+0.003*[#   7]+
          +0.003*[#   8]+0.002*[#   2]+0.001*[#  15]+0.001*[#  16]+0.001*[#  17]+
    |psi|^2 = 0.998
==== e(   3) =   -41.37959 eV ==== 
     psi = 0.330*[#   3]+0.330*[#   4]+0.330*[#   5]+0.002*[#   6]+0.002*[#   7]+
          +0.002*[#   8]+0.001*[#  15]+0.001*[#  16]+0.001*[#  17]+
    |psi|^2 = 0.998
==== e(   4) =   -41.34559 eV ==== 
     psi = 0.330*[#   3]+0.330*[#   4]+0.330*[#   5]+0.002*[#  15]+0.002*[#  16]+
          +0.002*[#  17]+0.001*[#   6]+0.001*[#   7]+0.001*[#   8]+
    |psi|^2 = 0.998
==== e(   5) =    -5.45132 eV ==== 
     psi = 0.778*[#  14]+0.047*[#   6]+0.047*[#   7]+0.047*[#   8]+0.037*[#   2]+
          +0.020*[#   9]+0.020*[#  12]+0.003*[#   1]+0.001*[#   3]+0.001*[#   4]+
          +0.001*[#   5]+
    |psi|^2 = 0.999
==== e(   6) =     6.58747 eV ==== 
     psi = 0.196*[#  15]+0.196*[#  16]+0.196*[#  17]+0.076*[#   9]+0.076*[#  12]+
          +0.049*[#   6]+0.049*[#   7]+0.049*[#   8]+0.045*[#   2]+0.013*[#  10]+
          +0.013*[#  11]+0.013*[#  13]+0.013*[#  14]+0.006*[#   1]+0.002*[#   3]+
          +0.002*[#   4]+0.002*[#   5]+
    |psi|^2 = 0.999
==== e(   7) =     8.27968 eV ==== 
     psi = 0.185*[#  15]+0.185*[#  16]+0.185*[#  17]+0.081*[#   9]+0.081*[#  12]+
          +0.076*[#  10]+0.076*[#  11]+0.076*[#  13]+0.014*[#   2]+0.012*[#   6]+
          +0.012*[#   7]+0.012*[#   8]+0.004*[#  14]+
    |psi|^2 = 0.999
==== e(   8) =     8.53847 eV ==== 
     psi = 0.183*[#  15]+0.183*[#  16]+0.183*[#  17]+0.080*[#   9]+0.080*[#  12]+
          +0.080*[#  10]+0.080*[#  11]+0.080*[#  13]+0.015*[#   6]+0.015*[#   7]+
          +0.015*[#   8]+0.001*[#   2]+
    |psi|^2 = 0.999
==== e(   9) =     9.92989 eV ==== 
     psi = 0.258*[#  10]+0.258*[#  11]+0.258*[#  13]+0.060*[#  15]+0.060*[#  16]+
          +0.060*[#  17]+0.016*[#   9]+0.016*[#  12]+0.003*[#  14]+0.002*[#   2]+
          +0.002*[#   6]+0.002*[#   7]+0.002*[#   8]+
    |psi|^2 = 0.997
==== e(  10) =    10.79637 eV ==== 
     psi = 0.242*[#   9]+0.242*[#  12]+0.168*[#  10]+0.168*[#  11]+0.168*[#  13]+
          +0.004*[#  14]+0.001*[#  15]+0.001*[#  16]+0.001*[#  17]+
    |psi|^2 = 1.000
==== e(  11) =    11.23430 eV ==== 
     psi = 0.269*[#  10]+0.269*[#  11]+0.269*[#  13]+0.050*[#  15]+0.050*[#  16]+
          +0.050*[#  17]+0.011*[#   9]+0.011*[#  12]+0.008*[#   2]+0.005*[#  14]+
          +0.002*[#   6]+0.002*[#   7]+0.002*[#   8]+
    |psi|^2 = 0.999
==== e(  12) =    11.48455 eV ==== 
     psi = 0.164*[#   9]+0.164*[#  12]+0.129*[#  10]+0.129*[#  11]+0.129*[#  13]+
          +0.081*[#  15]+0.081*[#  16]+0.081*[#  17]+0.016*[#  14]+0.007*[#   2]+
          +0.006*[#   6]+0.006*[#   7]+0.006*[#   8]+
    |psi|^2 = 0.998
==== e(  13) =    12.18519 eV ==== 
     psi = 0.303*[#   9]+0.303*[#  12]+0.096*[#  15]+0.096*[#  16]+0.096*[#  17]+
          +0.054*[#  14]+0.011*[#   6]+0.011*[#   7]+0.011*[#   8]+0.003*[#  10]+
          +0.003*[#  11]+0.003*[#  13]+0.001*[#   1]+
    |psi|^2 = 0.993
==== e(  14) =    19.85724 eV ==== 
     psi = 0.413*[#   2]+0.097*[#  14]+0.081*[#  15]+0.081*[#  16]+0.081*[#  17]+
          +0.072*[#   6]+0.072*[#   7]+0.072*[#   8]+0.007*[#   9]+0.007*[#  12]+
    |psi|^2 = 0.985
==== e(  15) =    24.39629 eV ==== 
     psi = 0.150*[#   2]+0.106*[#   6]+0.106*[#   7]+0.106*[#   8]+0.012*[#  15]+
          +0.012*[#  16]+0.012*[#  17]+0.011*[#   1]+0.006*[#  14]+0.002*[#  10]+
          +0.002*[#  11]+0.002*[#  13]+
    |psi|^2 = 0.529

 k =   0.1882135561 -0.1592576244 -0.0434338976
==== e(   1) =   -75.60719 eV ==== 
     psi = 0.979*[#   1]+0.009*[#   2]+0.003*[#   6]+0.003*[#   7]+0.003*[#   8]+
          +0.001*[#  15]+0.001*[#  16]+0.001*[#  17]+
    |psi|^2 = 1.000
==== e(   2) =   -41.42889 eV ==== 
     psi = 0.330*[#   3]+0.330*[#   4]+0.330*[#   5]+0.002*[#  15]+0.002*[#  16]+
          +0.002*[#  17]+0.001*[#   6]+0.001*[#   7]+0.001*[#   8]+
    |psi|^2 = 0.998
==== e(   3) =   -41.41399 eV ==== 
     psi = 0.330*[#   3]+0.330*[#   4]+0.330*[#   5]+0.002*[#  15]+0.002*[#  16]+
          +0.002*[#  17]+0.001*[#   6]+0.001*[#   7]+0.001*[#   8]+
    |psi|^2 = 0.998
==== e(   4) =   -41.35929 eV ==== 
     psi = 0.330*[#   3]+0.330*[#   4]+0.330*[#   5]+0.001*[#   6]+0.001*[#   7]+
          +0.001*[#   8]+0.001*[#  15]+0.001*[#  16]+0.001*[#  17]+
    |psi|^2 = 0.998
==== e(   5) =    -5.25680 eV ==== 
     psi = 0.840*[#  14]+0.034*[#   6]+0.034*[#   7]+0.034*[#   8]+0.024*[#   9]+
          +0.024*[#  12]+0.009*[#   2]+
    |psi|^2 = 0.999
==== e(   6) =     6.65188 eV ==== 
     psi = 0.206*[#  15]+0.206*[#  16]+0.206*[#  17]+0.075*[#   2]+0.052*[#  10]+
          +0.052*[#  11]+0.052*[#  13]+0.043*[#   6]+0.043*[#   7]+0.043*[#   8]+
          +0.007*[#   9]+0.007*[#  12]+0.003*[#  14]+0.003*[#   1]+0.002*[#   3]+
          +0.002*[#   4]+0.002*[#   5]+
    |psi|^2 = 1.000
==== e(   7) =     7.49655 eV ==== 
     psi = 0.193*[#  15]+0.193*[#  16]+0.193*[#  17]+0.095*[#   9]+0.095*[#  12]+
          +0.045*[#  10]+0.045*[#  11]+0.045*[#  13]+0.025*[#   6]+0.025*[#   7]+
          +0.025*[#   8]+0.013*[#   2]+0.001*[#   3]+0.001*[#   4]+0.001*[#   5]+
    |psi|^2 = 0.999
==== e(   8) =     8.00144 eV ==== 
     psi = 0.185*[#  15]+0.185*[#  16]+0.185*[#  17]+0.176*[#   9]+0.176*[#  12]+
          +0.018*[#  10]+0.018*[#  11]+0.018*[#  13]+0.012*[#   6]+0.012*[#   7]+
          +0.012*[#   8]+
    |psi|^2 = 0.999
==== e(   9) =    10.28852 eV ==== 
     psi = 0.254*[#  10]+0.254*[#  11]+0.254*[#  13]+0.065*[#   9]+0.065*[#  12]+
          +0.030*[#  15]+0.030*[#  16]+0.030*[#  17]+0.010*[#  14]+0.006*[#   2]+
    |psi|^2 = 0.998
==== e(  10) =    10.88281 eV ==== 
     psi = 0.306*[#  10]+0.306*[#  11]+0.306*[#  13]+0.038*[#   9]+0.038*[#  12]+
          +0.002*[#  15]+0.002*[#  16]+0.002*[#  17]+0.001*[#  14]+
    |psi|^2 = 1.000
==== e(  11) =    11.19948 eV ==== 
     psi = 0.284*[#  10]+0.284*[#  11]+0.284*[#  13]+0.039*[#  15]+0.039*[#  16]+
          +0.039*[#  17]+0.013*[#   2]+0.006*[#   9]+0.006*[#  12]+0.001*[#   6]+
          +0.001*[#   7]+0.001*[#   8]+
    |psi|^2 = 0.999
==== e(  12) =    11.89902 eV ==== 
     psi = 0.297*[#   9]+0.297*[#  12]+0.079*[#  15]+0.079*[#  16]+0.079*[#  17]+
          +0.043*[#  14]+0.030*[#  10]+0.030*[#  11]+0.030*[#  13]+0.010*[#   6]+
          +0.010*[#   7]+0.010*[#   8]+0.002*[#   2]+
    |psi|^2 = 0.996
==== e(  13) =    12.45552 eV ==== 
     psi = 0.288*[#   9]+0.288*[#  12]+0.123*[#  15]+0.123*[#  16]+0.123*[#  17]+
          +0.012*[#   2]+0.006*[#   6]+0.006*[#   7]+0.006*[#   8]+0.006*[#  10]+
          +0.006*[#  11]+0.006*[#  13]+0.005*[#  14]+
    |psi|^2 = 0.997
==== e(  14) =    21.20219 eV ==== 
     psi = 0.493*[#   2]+0.089*[#   6]+0.089*[#   7]+0.089*[#   8]+0.053*[#  14]+
          +0.050*[#  15]+0.050*[#  16]+0.050*[#  17]+0.002*[#   1]+0.001*[#   9]+
          +0.001*[#  12]+
    |psi|^2 = 0.968
==== e(  15) =    22.97046 eV ==== 
     psi = 0.295*[#   2]+0.139*[#   6]+0.139*[#   7]+0.139*[#   8]+0.034*[#  15]+
          +0.034*[#  16]+0.034*[#  17]+0.020*[#  14]+0.011*[#   1]+0.002*[#  10]+
          +0.002*[#  11]+0.002*[#  13]+0.002*[#   9]+0.002*[#  12]+
    |psi|^2 = 0.855

 k =   0.1592576244 -0.1303016927 -0.0144779659
==== e(   1) =   -75.60990 eV ==== 
     psi = 0.978*[#   1]+0.009*[#   2]+0.003*[#   6]+0.003*[#   7]+0.003*[#   8]+
          +0.002*[#  15]+0.002*[#  16]+0.002*[#  17]+
    |psi|^2 = 1.000
==== e(   2) =   -41.44984 eV ==== 
     psi = 0.331*[#   3]+0.331*[#   4]+0.331*[#   5]+0.001*[#  14]+
    |psi|^2 = 0.998
==== e(   3) =   -41.40957 eV ==== 
     psi = 0.330*[#   3]+0.330*[#   4]+0.330*[#   5]+0.002*[#  15]+0.002*[#  16]+
          +0.002*[#  17]+
    |psi|^2 = 0.998
==== e(   4) =   -41.37178 eV ==== 
     psi = 0.329*[#   3]+0.329*[#   4]+0.329*[#   5]+0.003*[#   6]+0.003*[#   7]+
          +0.003*[#   8]+
    |psi|^2 = 0.998
==== e(   5) =    -5.22123 eV ==== 
     psi = 0.833*[#  14]+0.042*[#   6]+0.042*[#   7]+0.042*[#   8]+0.019*[#   9]+
          +0.019*[#  12]+
    |psi|^2 = 0.999
==== e(   6) =     6.42053 eV ==== 
     psi = 0.196*[#  15]+0.196*[#  16]+0.196*[#  17]+0.104*[#   2]+0.050*[#  10]+
          +0.050*[#  11]+0.050*[#  13]+0.040*[#   9]+0.040*[#  12]+0.023*[#   6]+
          +0.023*[#   7]+0.023*[#   8]+0.003*[#   1]+0.001*[#  14]+
    |psi|^2 = 0.999
==== e(   7) =     7.46577 eV ==== 
     psi = 0.205*[#  15]+0.205*[#  16]+0.205*[#  17]+0.073*[#  10]+0.073*[#  11]+
          +0.073*[#  13]+0.042*[#   6]+0.042*[#   7]+0.042*[#   8]+0.019*[#   9]+
          +0.019*[#  12]+0.002*[#   3]+0.002*[#   4]+0.002*[#   5]+
    |psi|^2 = 0.999
==== e(   8) =     7.64457 eV ==== 
     psi = 0.220*[#   9]+0.220*[#  12]+0.177*[#  15]+0.177*[#  16]+0.177*[#  17]+
          +0.007*[#   6]+0.007*[#   7]+0.007*[#   8]+0.002*[#  10]+0.002*[#  11]+
          +0.002*[#  13]+
    |psi|^2 = 0.999
==== e(   9) =    10.63027 eV ==== 
     psi = 0.225*[#  10]+0.225*[#  11]+0.225*[#  13]+0.137*[#   9]+0.137*[#  12]+
          +0.014*[#  14]+0.011*[#  15]+0.011*[#  16]+0.011*[#  17]+
    |psi|^2 = 0.999
==== e(  10) =    10.74109 eV ==== 
     psi = 0.328*[#  10]+0.328*[#  11]+0.328*[#  13]+0.004*[#  15]+0.004*[#  16]+
          +0.004*[#  17]+0.002*[#   9]+0.002*[#  12]+
    |psi|^2 = 1.000
==== e(  11) =    11.28732 eV ==== 
     psi = 0.247*[#  10]+0.247*[#  11]+0.247*[#  13]+0.062*[#  15]+0.062*[#  16]+
          +0.062*[#  17]+0.024*[#   9]+0.024*[#  12]+0.013*[#   2]+0.003*[#  14]+
          +0.003*[#   6]+0.003*[#   7]+0.003*[#   8]+
    |psi|^2 = 0.999
==== e(  12) =    11.67112 eV ==== 
     psi = 0.259*[#   9]+0.259*[#  12]+0.069*[#  10]+0.069*[#  11]+0.069*[#  13]+
          +0.065*[#  15]+0.065*[#  16]+0.065*[#  17]+0.033*[#  14]+0.030*[#   2]+
          +0.005*[#   6]+0.005*[#   7]+0.005*[#   8]+
    |psi|^2 = 0.997
==== e(  13) =    13.09686 eV ==== 
     psi = 0.274*[#   9]+0.274*[#  12]+0.142*[#  15]+0.142*[#  16]+0.142*[#  17]+
          +0.005*[#   2]+0.005*[#   6]+0.005*[#   7]+0.005*[#   8]+
    |psi|^2 = 0.996
==== e(  14) =    21.70842 eV ==== 
     psi = 0.248*[#   2]+0.145*[#   6]+0.145*[#   7]+0.145*[#   8]+0.062*[#  15]+
          +0.062*[#  16]+0.062*[#  17]+0.059*[#  14]+0.003*[#   9]+0.003*[#  12]+
          +0.002*[#  10]+0.002*[#  11]+0.002*[#  13]+
    |psi|^2 = 0.943
==== e(  15) =    22.86905 eV ==== 
     psi = 0.475*[#   2]+0.112*[#   6]+0.112*[#   7]+0.112*[#   8]+0.025*[#  15]+
          +0.025*[#  16]+0.025*[#  17]+0.024*[#  14]+0.013*[#   1]+0.001*[#  10]+
          +0.001*[#  11]+0.001*[#  13]+
    |psi|^2 = 0.930

 k =   0.1303016927 -0.1013457610  0.0144779659
==== e(   1) =   -75.60920 eV ==== 
     psi = 0.951*[#   1]+0.012*[#   6]+0.012*[#   7]+0.012*[#   8]+0.008*[#   2]+
          +0.001*[#  15]+0.001*[#  16]+0.001*[#  17]+
    |psi|^2 = 1.000
==== e(   2) =   -41.43381 eV ==== 
     psi = 0.329*[#   3]+0.329*[#   4]+0.329*[#   5]+0.003*[#   6]+0.003*[#   7]+
          +0.003*[#   8]+0.001*[#   2]+
    |psi|^2 = 0.998
==== e(   3) =   -41.38523 eV ==== 
     psi = 0.329*[#   3]+0.329*[#   4]+0.329*[#   5]+0.002*[#  15]+0.002*[#  16]+
          +0.002*[#  17]+0.001*[#   6]+0.001*[#   7]+0.001*[#   8]+
    |psi|^2 = 0.998
==== e(   4) =   -41.37448 eV ==== 
     psi = 0.328*[#   3]+0.328*[#   4]+0.328*[#   5]+0.004*[#   6]+0.004*[#   7]+
          +0.004*[#   8]+
    |psi|^2 = 0.999
==== e(   5) =    -5.36627 eV ==== 
     psi = 0.762*[#  14]+0.064*[#   6]+0.064*[#   7]+0.064*[#   8]+0.017*[#   2]+
          +0.009*[#   9]+0.009*[#  12]+0.004*[#   1]+0.002*[#   3]+0.002*[#   4]+
          +0.002*[#   5]+
    |psi|^2 = 0.999
==== e(   6) =     6.23480 eV ==== 
     psi = 0.189*[#  15]+0.189*[#  16]+0.189*[#  17]+0.112*[#   2]+0.052*[#   9]+
          +0.052*[#  12]+0.041*[#  10]+0.041*[#  11]+0.041*[#  13]+0.022*[#   6]+
          +0.022*[#   7]+0.022*[#   8]+0.017*[#  14]+0.006*[#   1]+
    |psi|^2 = 0.999
==== e(   7) =     7.55833 eV ==== 
     psi = 0.235*[#   9]+0.235*[#  12]+0.170*[#  15]+0.170*[#  16]+0.170*[#  17]+
          +0.003*[#  10]+0.003*[#  11]+0.003*[#  13]+0.003*[#   6]+0.003*[#   7]+
          +0.003*[#   8]+0.002*[#   2]+
    |psi|^2 = 0.999
==== e(   8) =     7.84912 eV ==== 
     psi = 0.184*[#  15]+0.184*[#  16]+0.184*[#  17]+0.106*[#  10]+0.106*[#  11]+
          +0.106*[#  13]+0.027*[#   6]+0.027*[#   7]+0.027*[#   8]+0.022*[#   9]+
          +0.022*[#  12]+
    |psi|^2 = 0.999
==== e(   9) =    10.52502 eV ==== 
     psi = 0.320*[#  10]+0.320*[#  11]+0.320*[#  13]+0.010*[#   9]+0.010*[#  12]+
          +0.005*[#  15]+0.005*[#  16]+0.005*[#  17]+
    |psi|^2 = 0.999
==== e(  10) =    10.76179 eV ==== 
     psi = 0.197*[#   9]+0.197*[#  12]+0.195*[#  10]+0.195*[#  11]+0.195*[#  13]+
          +0.012*[#  14]+0.002*[#  15]+0.002*[#  16]+0.002*[#  17]+
    |psi|^2 = 0.999
==== e(  11) =    11.31507 eV ==== 
     psi = 0.230*[#  10]+0.230*[#  11]+0.230*[#  13]+0.076*[#  15]+0.076*[#  16]+
          +0.076*[#  17]+0.024*[#   9]+0.024*[#  12]+0.020*[#   2]+0.007*[#  14]+
          +0.002*[#   6]+0.002*[#   7]+0.002*[#   8]+
    |psi|^2 = 0.999
==== e(  12) =    11.70834 eV ==== 
     psi = 0.186*[#   9]+0.186*[#  12]+0.100*[#  10]+0.100*[#  11]+0.100*[#  13]+
          +0.086*[#  15]+0.086*[#  16]+0.086*[#  17]+0.026*[#  14]+0.026*[#   2]+
          +0.006*[#   6]+0.006*[#   7]+0.006*[#   8]+
    |psi|^2 = 0.997
==== e(  13) =    13.43282 eV ==== 
     psi = 0.257*[#   9]+0.257*[#  12]+0.156*[#  15]+0.156*[#  16]+0.156*[#  17]+
          +0.004*[#  14]+0.002*[#   6]+0.002*[#   7]+0.002*[#   8]+
    |psi|^2 = 0.994
==== e(  14) =    20.11373 eV ==== 
     psi = 0.170*[#   2]+0.136*[#   6]+0.136*[#   7]+0.136*[#   8]+0.136*[#  14]+
          +0.079*[#  15]+0.079*[#  16]+0.079*[#  17]+0.006*[#   9]+0.006*[#  12]+
          +0.004*[#   1]+
    |psi|^2 = 0.972
==== e(  15) =    23.84983 eV ==== 
     psi = 0.183*[#   2]+0.182*[#   6]+0.182*[#   7]+0.182*[#   8]+0.026*[#  15]+
          +0.026*[#  16]+0.026*[#  17]+0.008*[#   1]+0.003*[#  14]+0.002*[#  10]+
          +0.002*[#  11]+0.002*[#  13]+0.002*[#   3]+0.002*[#   4]+0.002*[#   5]+
    |psi|^2 = 0.828

 k =   0.1013457610 -0.0723898293  0.0434338976
==== e(   1) =   -75.60683 eV ==== 
     psi = 0.925*[#   1]+0.021*[#   6]+0.021*[#   7]+0.021*[#   8]+0.006*[#   2]+
          +0.001*[#  15]+0.001*[#  16]+0.001*[#  17]+
    |psi|^2 = 1.000
==== e(   2) =   -41.41325 eV ==== 
     psi = 0.328*[#   3]+0.328*[#   4]+0.328*[#   5]+0.003*[#   6]+0.003*[#   7]+
          +0.003*[#   8]+0.002*[#   2]+
    |psi|^2 = 0.998
==== e(   3) =   -41.36505 eV ==== 
     psi = 0.328*[#   3]+0.328*[#   4]+0.328*[#   5]+0.004*[#   6]+0.004*[#   7]+
          +0.004*[#   8]+
    |psi|^2 = 0.999
==== e(   4) =   -41.34603 eV ==== 
     psi = 0.329*[#   3]+0.329*[#   4]+0.329*[#   5]+0.004*[#   6]+0.004*[#   7]+
          +0.004*[#   8]+
    |psi|^2 = 0.999
==== e(   5) =    -5.60723 eV ==== 
     psi = 0.691*[#  14]+0.082*[#   6]+0.082*[#   7]+0.082*[#   8]+0.044*[#   2]+
          +0.009*[#   1]+0.002*[#   9]+0.002*[#  12]+0.002*[#   3]+0.002*[#   4]+
          +0.002*[#   5]+
    |psi|^2 = 1.000
==== e(   6) =     6.42333 eV ==== 
     psi = 0.189*[#  15]+0.189*[#  16]+0.189*[#  17]+0.125*[#   2]+0.055*[#  10]+
          +0.055*[#  11]+0.055*[#  13]+0.037*[#  14]+0.030*[#   9]+0.030*[#  12]+
          +0.013*[#   6]+0.013*[#   7]+0.013*[#   8]+0.006*[#   1]+
    |psi|^2 = 0.999
==== e(   7) =     7.73960 eV ==== 
     psi = 0.217*[#   9]+0.217*[#  12]+0.164*[#  15]+0.164*[#  16]+0.164*[#  17]+
          +0.021*[#  10]+0.021*[#  11]+0.021*[#  13]+0.004*[#   2]+
    |psi|^2 = 0.999
==== e(   8) =     8.06568 eV ==== 
     psi = 0.165*[#  15]+0.165*[#  16]+0.165*[#  17]+0.153*[#   9]+0.153*[#  12]+
          +0.058*[#  10]+0.058*[#  11]+0.058*[#  13]+0.007*[#   6]+0.007*[#   7]+
          +0.007*[#   8]+0.001*[#   2]+
    |psi|^2 = 0.999
==== e(   9) =    10.37052 eV ==== 
     psi = 0.305*[#  10]+0.305*[#  11]+0.305*[#  13]+0.029*[#   9]+0.029*[#  12]+
          +0.006*[#  15]+0.006*[#  16]+0.006*[#  17]+0.003*[#  14]+0.002*[#   2]+
    |psi|^2 = 0.999
==== e(  10) =    10.64329 eV ==== 
     psi = 0.259*[#  10]+0.259*[#  11]+0.259*[#  13]+0.105*[#   9]+0.105*[#  12]+
          +0.002*[#  15]+0.002*[#  16]+0.002*[#  17]+0.002*[#  14]+0.001*[#   2]+
    |psi|^2 = 1.000
==== e(  11) =    11.10050 eV ==== 
     psi = 0.263*[#  10]+0.263*[#  11]+0.263*[#  13]+0.052*[#  15]+0.052*[#  16]+
          +0.052*[#  17]+0.026*[#   2]+0.013*[#  14]+0.003*[#   6]+0.003*[#   7]+
          +0.003*[#   8]+0.002*[#   9]+0.002*[#  12]+
    |psi|^2 = 0.999
==== e(  12) =    12.39234 eV ==== 
     psi = 0.213*[#   9]+0.213*[#  12]+0.147*[#  15]+0.147*[#  16]+0.147*[#  17]+
          +0.032*[#  10]+0.032*[#  11]+0.032*[#  13]+0.011*[#  14]+0.006*[#   6]+
          +0.006*[#   7]+0.006*[#   8]+0.005*[#   2]+
    |psi|^2 = 0.996
==== e(  13) =    13.21609 eV ==== 
     psi = 0.241*[#   9]+0.241*[#  12]+0.161*[#  15]+0.161*[#  16]+0.161*[#  17]+
          +0.009*[#  14]+0.003*[#  10]+0.003*[#  11]+0.003*[#  13]+0.002*[#   6]+
          +0.002*[#   7]+0.002*[#   8]+
    |psi|^2 = 0.994
==== e(  14) =    18.52604 eV ==== 
     psi = 0.210*[#  14]+0.133*[#   2]+0.126*[#   6]+0.126*[#   7]+0.126*[#   8]+
          +0.077*[#  15]+0.077*[#  16]+0.077*[#  17]+0.013*[#   1]+0.005*[#   9]+
          +0.005*[#  12]+0.002*[#   3]+0.002*[#   4]+0.002*[#   5]+
    |psi|^2 = 0.980
==== e(  15) =    24.20180 eV ==== 
     psi = 0.355*[#   2]+0.097*[#   6]+0.097*[#   7]+0.097*[#   8]+0.020*[#   1]+
          +0.019*[#  15]+0.019*[#  16]+0.019*[#  17]+0.003*[#  14]+0.001*[#  10]+
          +0.001*[#  11]+0.001*[#  13]+0.001*[#   3]+0.001*[#   4]+0.001*[#   5]+
    |psi|^2 = 0.736

 k =   0.0144779659  0.0144779659  0.1882135561
==== e(   1) =   -75.60165 eV ==== 
     psi = 0.971*[#   1]+0.009*[#   2]+0.007*[#   6]+0.007*[#   7]+0.007*[#   8]+
    |psi|^2 = 1.000
==== e(   2) =   -41.43774 eV ==== 
     psi = 0.328*[#   3]+0.328*[#   4]+0.328*[#   5]+0.002*[#  15]+0.002*[#  16]+
          +0.002*[#  17]+0.002*[#   6]+0.002*[#   7]+0.002*[#   8]+
    |psi|^2 = 0.998
==== e(   3) =   -41.35315 eV ==== 
     psi = 0.331*[#   3]+0.331*[#   4]+0.331*[#   5]+0.002*[#  15]+0.002*[#  16]+
          +0.002*[#  17]+
    |psi|^2 = 0.998
==== e(   4) =   -41.35172 eV ==== 
     psi = 0.330*[#   3]+0.330*[#   4]+0.330*[#   5]+0.002*[#  15]+0.002*[#  16]+
          +0.002*[#  17]+
    |psi|^2 = 0.998
==== e(   5) =    -5.39629 eV ==== 
     psi = 0.834*[#  14]+0.037*[#   2]+0.033*[#   9]+0.033*[#  12]+0.020*[#   6]+
          +0.020*[#   7]+0.020*[#   8]+
    |psi|^2 = 0.999
==== e(   6) =     6.83008 eV ==== 
     psi = 0.217*[#  15]+0.217*[#  16]+0.217*[#  17]+0.070*[#   6]+0.070*[#   7]+
          +0.070*[#   8]+0.047*[#   9]+0.047*[#  12]+0.017*[#   2]+0.004*[#  14]+
          +0.004*[#   3]+0.004*[#   4]+0.004*[#   5]+0.003*[#   1]+0.003*[#  10]+
          +0.003*[#  11]+0.003*[#  13]+
    |psi|^2 = 0.999
==== e(   7) =     8.79283 eV ==== 
     psi = 0.156*[#  10]+0.156*[#  11]+0.156*[#  13]+0.154*[#  15]+0.154*[#  16]+
          +0.154*[#  17]+0.014*[#   6]+0.014*[#   7]+0.014*[#   8]+0.008*[#   9]+
          +0.008*[#  12]+0.004*[#   2]+0.001*[#  14]+
    |psi|^2 = 0.997
==== e(   8) =     9.07677 eV ==== 
     psi = 0.249*[#  15]+0.249*[#  16]+0.249*[#  17]+0.057*[#   9]+0.057*[#  12]+
          +0.025*[#  10]+0.025*[#  11]+0.025*[#  13]+0.020*[#   6]+0.020*[#   7]+
          +0.020*[#   8]+
    |psi|^2 = 0.999
==== e(   9) =     9.52739 eV ==== 
     psi = 0.203*[#  10]+0.203*[#  11]+0.203*[#  13]+0.114*[#  15]+0.114*[#  16]+
          +0.114*[#  17]+0.010*[#   9]+0.010*[#  12]+0.007*[#   6]+0.007*[#   7]+
          +0.007*[#   8]+0.003*[#   2]+0.002*[#  14]+
    |psi|^2 = 0.997
==== e(  10) =    10.74556 eV ==== 
     psi = 0.389*[#   9]+0.389*[#  12]+0.060*[#  10]+0.060*[#  11]+0.060*[#  13]+
          +0.012*[#  15]+0.012*[#  16]+0.012*[#  17]+0.001*[#   6]+0.001*[#   7]+
          +0.001*[#   8]+
    |psi|^2 = 0.999
==== e(  11) =    11.14079 eV ==== 
     psi = 0.302*[#  10]+0.302*[#  11]+0.302*[#  13]+0.028*[#  15]+0.028*[#  16]+
          +0.028*[#  17]+0.002*[#   9]+0.002*[#  12]+0.002*[#   2]+0.001*[#   6]+
          +0.001*[#   7]+0.001*[#   8]+0.001*[#  14]+
    |psi|^2 = 0.999
==== e(  12) =    11.18898 eV ==== 
     psi = 0.248*[#  10]+0.248*[#  11]+0.248*[#  13]+0.054*[#   9]+0.054*[#  12]+
          +0.047*[#  15]+0.047*[#  16]+0.047*[#  17]+0.002*[#   6]+0.002*[#   7]+
          +0.002*[#   8]+
    |psi|^2 = 0.999
==== e(  13) =    11.47708 eV ==== 
     psi = 0.395*[#   9]+0.395*[#  12]+0.085*[#  14]+0.030*[#  15]+0.030*[#  16]+
          +0.030*[#  17]+0.008*[#   6]+0.008*[#   7]+0.008*[#   8]+0.001*[#   1]+
    |psi|^2 = 0.994
==== e(  14) =    19.92163 eV ==== 
     psi = 0.715*[#   2]+0.056*[#  14]+0.040*[#  15]+0.040*[#  16]+0.040*[#  17]+
          +0.029*[#   6]+0.029*[#   7]+0.029*[#   8]+0.002*[#   1]+0.002*[#   9]+
          +0.002*[#  12]+
    |psi|^2 = 0.986
==== e(  15) =    24.03553 eV ==== 
     psi = 0.193*[#   2]+0.186*[#   6]+0.186*[#   7]+0.186*[#   8]+0.053*[#  15]+
          +0.053*[#  16]+0.053*[#  17]+0.020*[#   1]+0.008*[#  14]+0.002*[#   9]+
          +0.002*[#  12]+
    |psi|^2 = 0.943

 k =   0.2171694878 -0.1882135561 -0.0144779659
==== e(   1) =   -75.60106 eV ==== 
     psi = 0.986*[#   1]+0.010*[#   2]+
    |psi|^2 = 1.000
==== e(   2) =   -41.42948 eV ==== 
     psi = 0.329*[#   3]+0.329*[#   4]+0.329*[#   5]+0.003*[#  15]+0.003*[#  16]+
          +0.003*[#  17]+
    |psi|^2 = 0.998
==== e(   3) =   -41.36983 eV ==== 
     psi = 0.330*[#   3]+0.330*[#   4]+0.330*[#   5]+0.002*[#  15]+0.002*[#  16]+
          +0.002*[#  17]+
    |psi|^2 = 0.998
==== e(   4) =   -41.34575 eV ==== 
     psi = 0.330*[#   3]+0.330*[#   4]+0.330*[#   5]+0.001*[#  15]+0.001*[#  16]+
          +0.001*[#  17]+
    |psi|^2 = 0.998
==== e(   5) =    -5.30772 eV ==== 
     psi = 0.872*[#  14]+0.038*[#   9]+0.038*[#  12]+0.023*[#   2]+0.009*[#   6]+
          +0.009*[#   7]+0.009*[#   8]+
    |psi|^2 = 0.999
==== e(   6) =     7.09144 eV ==== 
     psi = 0.234*[#  15]+0.234*[#  16]+0.234*[#  17]+0.076*[#   6]+0.076*[#   7]+
          +0.076*[#   8]+0.014*[#  10]+0.014*[#  11]+0.014*[#  13]+0.006*[#   9]+
          +0.006*[#  12]+0.004*[#   2]+0.004*[#   3]+0.004*[#   4]+0.004*[#   5]+
    |psi|^2 = 1.000
==== e(   7) =     8.24445 eV ==== 
     psi = 0.185*[#  15]+0.185*[#  16]+0.185*[#  17]+0.101*[#  10]+0.101*[#  11]+
          +0.101*[#  13]+0.032*[#   9]+0.032*[#  12]+0.019*[#   6]+0.019*[#   7]+
          +0.019*[#   8]+0.018*[#   2]+0.002*[#  14]+
    |psi|^2 = 0.998
==== e(   8) =     8.57453 eV ==== 
     psi = 0.206*[#  15]+0.206*[#  16]+0.206*[#  17]+0.110*[#   9]+0.110*[#  12]+
          +0.034*[#  10]+0.034*[#  11]+0.034*[#  13]+0.016*[#   6]+0.016*[#   7]+
          +0.016*[#   8]+0.006*[#   2]+0.001*[#  14]+
    |psi|^2 = 0.999
==== e(   9) =     9.95603 eV ==== 
[...]
          +0.009*[#  10]+0.009*[#  11]+0.009*[#  13]+0.003*[#   6]+0.003*[#   7]+
          +0.003*[#   8]+
    |psi|^2 = 0.998
==== e(  13) =    15.93619 eV ==== 
     psi = 0.343*[#   9]+0.343*[#  12]+0.077*[#  15]+0.077*[#  16]+0.077*[#  17]+
          +0.033*[#  14]+0.009*[#   6]+0.009*[#   7]+0.009*[#   8]+0.005*[#  10]+
          +0.005*[#  11]+0.005*[#  13]+0.001*[#   2]+
    |psi|^2 = 0.996
==== e(  14) =    20.30385 eV ==== 
     psi = 0.172*[#   6]+0.172*[#   7]+0.172*[#   8]+0.165*[#  14]+0.061*[#   2]+
          +0.054*[#  15]+0.054*[#  16]+0.054*[#  17]+0.012*[#   9]+0.012*[#  12]+
          +0.007*[#   1]+0.002*[#  10]+0.002*[#  11]+0.002*[#  13]+0.002*[#   3]+
          +0.002*[#   4]+0.002*[#   5]+
    |psi|^2 = 0.949
==== e(  15) =    24.16471 eV ==== 
     psi = 0.583*[#   2]+0.046*[#   6]+0.046*[#   7]+0.046*[#   8]+0.041*[#  15]+
          +0.041*[#  16]+0.041*[#  17]+0.015*[#   1]+0.004*[#  10]+0.004*[#  11]+
          +0.004*[#  13]+0.002*[#  14]+
    |psi|^2 = 0.877

 k =   0.2750813512 -0.1303016927 -0.0723898293
==== e(   1) =   -71.85873 eV ==== 
     psi = 0.975*[#   1]+0.006*[#   2]+0.004*[#   6]+0.004*[#   7]+0.004*[#   8]+
          +0.002*[#  15]+0.002*[#  16]+0.002*[#  17]+
    |psi|^2 = 1.000
==== e(   2) =   -37.82187 eV ==== 
     psi = 0.329*[#   3]+0.329*[#   4]+0.329*[#   5]+0.002*[#   6]+0.002*[#   7]+
          +0.002*[#   8]+0.001*[#  14]+
    |psi|^2 = 0.998
==== e(   3) =   -37.76107 eV ==== 
     psi = 0.330*[#   3]+0.330*[#   4]+0.330*[#   5]+0.001*[#  15]+0.001*[#  16]+
          +0.001*[#  17]+0.001*[#   6]+0.001*[#   7]+0.001*[#   8]+
    |psi|^2 = 0.998
==== e(   4) =   -37.74295 eV ==== 
     psi = 0.330*[#   3]+0.330*[#   4]+0.330*[#   5]+0.002*[#   6]+0.002*[#   7]+
          +0.002*[#   8]+
    |psi|^2 = 0.998
==== e(   5) =    -4.61689 eV ==== 
     psi = 0.809*[#  14]+0.052*[#   6]+0.052*[#   7]+0.052*[#   8]+0.012*[#   9]+
          +0.012*[#  12]+0.004*[#   2]+0.001*[#   3]+0.001*[#   4]+0.001*[#   5]+
    |psi|^2 = 0.999
==== e(   6) =     6.98612 eV ==== 
     psi = 0.217*[#  15]+0.217*[#  16]+0.217*[#  17]+0.133*[#   2]+0.035*[#  10]+
          +0.035*[#  11]+0.035*[#  13]+0.028*[#   6]+0.028*[#   7]+0.028*[#   8]+
          +0.007*[#   9]+0.007*[#  12]+0.005*[#  14]+0.004*[#   1]+
    |psi|^2 = 0.999
==== e(   7) =     8.64730 eV ==== 
     psi = 0.233*[#  15]+0.233*[#  16]+0.233*[#  17]+0.067*[#   9]+0.067*[#  12]+
          +0.028*[#   6]+0.028*[#   7]+0.028*[#   8]+0.025*[#  10]+0.025*[#  11]+
          +0.025*[#  13]+0.002*[#   2]+0.001*[#   3]+0.001*[#   4]+0.001*[#   5]+
    |psi|^2 = 0.997
==== e(   8) =     8.99859 eV ==== 
     psi = 0.238*[#  15]+0.238*[#  16]+0.238*[#  17]+0.112*[#   9]+0.112*[#  12]+
          +0.009*[#   6]+0.009*[#   7]+0.009*[#   8]+0.009*[#  10]+0.009*[#  11]+
          +0.009*[#  13]+0.003*[#   2]+
    |psi|^2 = 0.997
==== e(   9) =    13.51193 eV ==== 
     psi = 0.292*[#  10]+0.292*[#  11]+0.292*[#  13]+0.025*[#   9]+0.025*[#  12]+
          +0.019*[#  15]+0.019*[#  16]+0.019*[#  17]+0.005*[#  14]+0.002*[#   2]+
          +0.002*[#   6]+0.002*[#   7]+0.002*[#   8]+
    |psi|^2 = 0.995
==== e(  10) =    13.93451 eV ==== 
     psi = 0.300*[#  10]+0.300*[#  11]+0.300*[#  13]+0.028*[#   9]+0.028*[#  12]+
          +0.012*[#  15]+0.012*[#  16]+0.012*[#  17]+0.002*[#  14]+0.002*[#   2]+
    |psi|^2 = 0.998
==== e(  11) =    14.18744 eV ==== 
     psi = 0.302*[#  10]+0.302*[#  11]+0.302*[#  13]+0.025*[#  15]+0.025*[#  16]+
          +0.025*[#  17]+0.006*[#   2]+0.006*[#   9]+0.006*[#  12]+
    |psi|^2 = 0.999
==== e(  12) =    15.17159 eV ==== 
     psi = 0.368*[#   9]+0.368*[#  12]+0.046*[#  15]+0.046*[#  16]+0.046*[#  17]+
          +0.035*[#  14]+0.020*[#  10]+0.020*[#  11]+0.020*[#  13]+0.007*[#   6]+
          +0.007*[#   7]+0.007*[#   8]+0.007*[#   2]+
    |psi|^2 = 0.998
==== e(  13) =    15.96201 eV ==== 
     psi = 0.366*[#   9]+0.366*[#  12]+0.079*[#  15]+0.079*[#  16]+0.079*[#  17]+
          +0.007*[#  14]+0.006*[#   2]+0.003*[#   6]+0.003*[#   7]+0.003*[#   8]+
          +0.002*[#  10]+0.002*[#  11]+0.002*[#  13]+
    |psi|^2 = 0.998
==== e(  14) =    21.70482 eV ==== 
     psi = 0.186*[#   6]+0.186*[#   7]+0.186*[#   8]+0.103*[#  14]+0.089*[#   2]+
          +0.050*[#  15]+0.050*[#  16]+0.050*[#  17]+0.009*[#   9]+0.009*[#  12]+
          +0.005*[#  10]+0.005*[#  11]+0.005*[#  13]+
    |psi|^2 = 0.935
==== e(  15) =    23.78751 eV ==== 
     psi = 0.572*[#   2]+0.062*[#   6]+0.062*[#   7]+0.062*[#   8]+0.047*[#  15]+
          +0.047*[#  16]+0.047*[#  17]+0.010*[#   1]+0.004*[#  14]+0.004*[#  10]+
          +0.004*[#  11]+0.004*[#  13]+
    |psi|^2 = 0.927

 k =   0.2461254195 -0.1013457610 -0.0434338976
==== e(   1) =   -71.86023 eV ==== 
     psi = 0.984*[#   1]+0.009*[#   2]+0.001*[#  15]+0.001*[#  16]+0.001*[#  17]+
    |psi|^2 = 1.000
==== e(   2) =   -37.80660 eV ==== 
     psi = 0.330*[#   3]+0.330*[#   4]+0.330*[#   5]+0.001*[#  14]+0.001*[#  15]+
          +0.001*[#  16]+0.001*[#  17]+
    |psi|^2 = 0.998
==== e(   3) =   -37.80018 eV ==== 
     psi = 0.330*[#   3]+0.330*[#   4]+0.330*[#   5]+0.003*[#  15]+0.003*[#  16]+
          +0.003*[#  17]+
    |psi|^2 = 0.998
==== e(   4) =   -37.75766 eV ==== 
     psi = 0.330*[#   3]+0.330*[#   4]+0.330*[#   5]+0.002*[#   6]+0.002*[#   7]+
          +0.002*[#   8]+0.001*[#  15]+0.001*[#  16]+0.001*[#  17]+
    |psi|^2 = 0.998
==== e(   5) =    -4.57091 eV ==== 
     psi = 0.860*[#  14]+0.031*[#   6]+0.031*[#   7]+0.031*[#   8]+0.023*[#   9]+
          +0.023*[#  12]+
    |psi|^2 = 0.999
==== e(   6) =     7.70642 eV ==== 
     psi = 0.231*[#  15]+0.231*[#  16]+0.231*[#  17]+0.085*[#   2]+0.032*[#   6]+
          +0.032*[#   7]+0.032*[#   8]+0.030*[#  10]+0.030*[#  11]+0.030*[#  13]+
          +0.014*[#   9]+0.014*[#  12]+0.002*[#   1]+0.001*[#   3]+0.001*[#   4]+
          +0.001*[#   5]+
    |psi|^2 = 0.998
==== e(   7) =     8.26561 eV ==== 
     psi = 0.241*[#  15]+0.241*[#  16]+0.241*[#  17]+0.052*[#   6]+0.052*[#   7]+
          +0.052*[#   8]+0.029*[#  10]+0.029*[#  11]+0.029*[#  13]+0.011*[#   9]+
          +0.011*[#  12]+0.003*[#   2]+0.002*[#   3]+0.002*[#   4]+0.002*[#   5]+
    |psi|^2 = 0.998
==== e(   8) =     8.95659 eV ==== 
     psi = 0.247*[#  15]+0.247*[#  16]+0.247*[#  17]+0.096*[#   9]+0.096*[#  12]+
          +0.015*[#   6]+0.015*[#   7]+0.015*[#   8]+0.010*[#   2]+0.003*[#  10]+
          +0.003*[#  11]+0.003*[#  13]+
    |psi|^2 = 0.998
==== e(   9) =    13.45208 eV ==== 
     psi = 0.283*[#  10]+0.283*[#  11]+0.283*[#  13]+0.029*[#  15]+0.029*[#  16]+
          +0.029*[#  17]+0.024*[#   9]+0.024*[#  12]+0.004*[#  14]+0.003*[#   2]+
          +0.001*[#   6]+0.001*[#   7]+0.001*[#   8]+
    |psi|^2 = 0.994
==== e(  10) =    13.81275 eV ==== 
     psi = 0.306*[#  10]+0.306*[#  11]+0.306*[#  13]+0.023*[#  15]+0.023*[#  16]+
          +0.023*[#  17]+0.004*[#   9]+0.004*[#  12]+
    |psi|^2 = 0.997
==== e(  11) =    14.24764 eV ==== 
     psi = 0.319*[#  10]+0.319*[#  11]+0.319*[#  13]+0.012*[#  15]+0.012*[#  16]+
          +0.012*[#  17]+0.002*[#   9]+0.002*[#  12]+
    |psi|^2 = 0.999
==== e(  12) =    14.73353 eV ==== 
     psi = 0.426*[#   9]+0.426*[#  12]+0.048*[#  14]+0.016*[#  15]+0.016*[#  16]+
          +0.016*[#  17]+0.012*[#  10]+0.012*[#  11]+0.012*[#  13]+0.008*[#   2]+
          +0.002*[#   6]+0.002*[#   7]+0.002*[#   8]+
    |psi|^2 = 0.999
==== e(  13) =    15.56441 eV ==== 
     psi = 0.393*[#   9]+0.393*[#  12]+0.059*[#  15]+0.059*[#  16]+0.059*[#  17]+
          +0.027*[#   2]+0.002*[#   6]+0.002*[#   7]+0.002*[#   8]+
    |psi|^2 = 0.998
==== e(  14) =    23.22222 eV ==== 
     psi = 0.782*[#   2]+0.049*[#  15]+0.049*[#  16]+0.049*[#  17]+0.011*[#   1]+
          +0.008*[#   6]+0.008*[#   7]+0.008*[#   8]+0.004*[#   9]+0.004*[#  12]+
    |psi|^2 = 0.975
==== e(  15) =    23.70025 eV ==== 
     psi = 0.233*[#   6]+0.233*[#   7]+0.233*[#   8]+0.043*[#  14]+0.030*[#  15]+
          +0.030*[#  16]+0.030*[#  17]+0.015*[#   2]+0.008*[#  10]+0.008*[#  11]+
          +0.008*[#  13]+0.002*[#   9]+0.002*[#  12]+
    |psi|^2 = 0.879

 k =   0.0723898293  0.0723898293 -0.2750813512
==== e(   1) =   -71.85867 eV ==== 
     psi = 0.982*[#   1]+0.007*[#   2]+0.002*[#  15]+0.002*[#  16]+0.002*[#  17]+
          +0.001*[#   6]+0.001*[#   7]+0.001*[#   8]+
    |psi|^2 = 1.000
==== e(   2) =   -37.81897 eV ==== 
     psi = 0.330*[#   3]+0.330*[#   4]+0.330*[#   5]+0.001*[#   6]+0.001*[#   7]+
          +0.001*[#   8]+0.001*[#  14]+0.001*[#  15]+0.001*[#  16]+0.001*[#  17]+
    |psi|^2 = 0.998
==== e(   3) =   -37.77322 eV ==== 
     psi = 0.330*[#   3]+0.330*[#   4]+0.330*[#   5]+0.002*[#  15]+0.002*[#  16]+
          +0.002*[#  17]+
    |psi|^2 = 0.998
==== e(   4) =   -37.74482 eV ==== 
     psi = 0.330*[#   3]+0.330*[#   4]+0.330*[#   5]+0.002*[#   6]+0.002*[#   7]+
          +0.002*[#   8]+
    |psi|^2 = 0.998
==== e(   5) =    -4.58859 eV ==== 
     psi = 0.837*[#  14]+0.041*[#   6]+0.041*[#   7]+0.041*[#   8]+0.017*[#   9]+
          +0.017*[#  12]+0.003*[#   2]+0.001*[#   3]+0.001*[#   4]+0.001*[#   5]+
    |psi|^2 = 0.999
==== e(   6) =     7.17922 eV ==== 
     psi = 0.223*[#  15]+0.223*[#  16]+0.223*[#  17]+0.117*[#   2]+0.036*[#  10]+
          +0.036*[#  11]+0.036*[#  13]+0.033*[#   6]+0.033*[#   7]+0.033*[#   8]+
          +0.003*[#   1]+0.001*[#   3]+0.001*[#   4]+0.001*[#   5]+
    |psi|^2 = 0.999
==== e(   7) =     8.44998 eV ==== 
     psi = 0.235*[#  15]+0.235*[#  16]+0.235*[#  17]+0.055*[#   9]+0.055*[#  12]+
          +0.034*[#   6]+0.034*[#   7]+0.034*[#   8]+0.021*[#  10]+0.021*[#  11]+
          +0.021*[#  13]+0.008*[#   2]+0.002*[#   3]+0.002*[#   4]+0.002*[#   5]+
    |psi|^2 = 0.997
==== e(   8) =     9.13275 eV ==== 
     psi = 0.242*[#  15]+0.242*[#  16]+0.242*[#  17]+0.112*[#   9]+0.112*[#  12]+
          +0.011*[#   6]+0.011*[#   7]+0.011*[#   8]+0.005*[#  10]+0.005*[#  11]+
          +0.005*[#  13]+
    |psi|^2 = 0.998
==== e(   9) =    13.30684 eV ==== 
     psi = 0.286*[#  10]+0.286*[#  11]+0.286*[#  13]+0.024*[#   9]+0.024*[#  12]+
          +0.023*[#  15]+0.023*[#  16]+0.023*[#  17]+0.006*[#  14]+0.004*[#   2]+
          +0.003*[#   6]+0.003*[#   7]+0.003*[#   8]+
    |psi|^2 = 0.992
==== e(  10) =    14.03521 eV ==== 
     psi = 0.326*[#  10]+0.326*[#  11]+0.326*[#  13]+0.009*[#   9]+0.009*[#  12]+
          +0.002*[#  15]+0.002*[#  16]+0.002*[#  17]+
    |psi|^2 = 0.999
==== e(  11) =    14.19153 eV ==== 
     psi = 0.294*[#  10]+0.294*[#  11]+0.294*[#  13]+0.029*[#  15]+0.029*[#  16]+
          +0.029*[#  17]+0.012*[#   9]+0.012*[#  12]+0.006*[#   2]+0.001*[#  14]+
    |psi|^2 = 0.999
==== e(  12) =    15.18532 eV ==== 
     psi = 0.384*[#   9]+0.384*[#  12]+0.045*[#  14]+0.038*[#  15]+0.038*[#  16]+
          +0.038*[#  17]+0.015*[#  10]+0.015*[#  11]+0.015*[#  13]+0.007*[#   2]+
          +0.006*[#   6]+0.006*[#   7]+0.006*[#   8]+
    |psi|^2 = 0.998
==== e(  13) =    15.70315 eV ==== 
     psi = 0.379*[#   9]+0.379*[#  12]+0.074*[#  15]+0.074*[#  16]+0.074*[#  17]+
          +0.004*[#   6]+0.004*[#   7]+0.004*[#   8]+0.002*[#  10]+0.002*[#  11]+
          +0.002*[#  13]+
    |psi|^2 = 0.999
==== e(  14) =    22.30538 eV ==== 
     psi = 0.191*[#   6]+0.191*[#   7]+0.191*[#   8]+0.136*[#   2]+0.079*[#  14]+
          +0.035*[#  15]+0.035*[#  16]+0.035*[#  17]+0.006*[#  10]+0.006*[#  11]+
          +0.006*[#  13]+0.004*[#   9]+0.004*[#  12]+
    |psi|^2 = 0.921
==== e(  15) =    23.48299 eV ==== 
     psi = 0.613*[#   2]+0.052*[#  15]+0.052*[#  16]+0.052*[#  17]+0.047*[#   6]+
          +0.047*[#   7]+0.047*[#   8]+0.009*[#   1]+0.006*[#  14]+0.004*[#  10]+
          +0.004*[#  11]+0.004*[#  13]+0.002*[#   9]+0.002*[#  12]+
    |psi|^2 = 0.939

 k =   0.1013457610  0.1013457610  0.1013457610
==== e(   1) =   -71.85530 eV ==== 
     psi = 0.973*[#   1]+0.004*[#   6]+0.004*[#   7]+0.004*[#   8]+0.003*[#  15]+
          +0.003*[#  16]+0.003*[#  17]+0.003*[#   2]+
    |psi|^2 = 1.000
==== e(   2) =   -37.85662 eV ==== 
     psi = 0.326*[#   3]+0.326*[#   4]+0.326*[#   5]+0.006*[#   6]+0.006*[#   7]+
          +0.006*[#   8]+0.001*[#  14]+
    |psi|^2 = 0.998
==== e(   3) =   -37.70816 eV ==== 
     psi = 0.330*[#   3]+0.330*[#   4]+0.330*[#   5]+0.003*[#   6]+0.003*[#   7]+
          +0.003*[#   8]+
    |psi|^2 = 0.999
==== e(   4) =   -37.70816 eV ==== 
     psi = 0.330*[#   3]+0.330*[#   4]+0.330*[#   5]+0.003*[#   6]+0.003*[#   7]+
          +0.003*[#   8]+
    |psi|^2 = 0.999
==== e(   5) =    -4.65518 eV ==== 
     psi = 0.754*[#  14]+0.076*[#   6]+0.076*[#   7]+0.076*[#   8]+0.005*[#   2]+
          +0.003*[#   3]+0.003*[#   4]+0.003*[#   5]+0.002*[#   1]+
    |psi|^2 = 1.000
==== e(   6) =     6.30017 eV ==== 
     psi = 0.212*[#  15]+0.212*[#  16]+0.212*[#  17]+0.208*[#   2]+0.045*[#  10]+
          +0.045*[#  11]+0.045*[#  13]+0.008*[#  14]+0.005*[#   1]+0.002*[#   6]+
          +0.002*[#   7]+0.002*[#   8]+
    |psi|^2 = 0.999
==== e(   7) =     8.90607 eV ==== 
     psi = 0.224*[#  15]+0.224*[#  16]+0.224*[#  17]+0.138*[#   9]+0.138*[#  12]+
          +0.015*[#  10]+0.015*[#  11]+0.015*[#  13]+
    |psi|^2 = 0.996
==== e(   8) =     8.90607 eV ==== 
     psi = 0.224*[#  15]+0.224*[#  16]+0.224*[#  17]+0.138*[#   9]+0.138*[#  12]+
          +0.015*[#  10]+0.015*[#  11]+0.015*[#  13]+
    |psi|^2 = 0.996
==== e(   9) =    13.90877 eV ==== 
     psi = 0.313*[#  10]+0.313*[#  11]+0.313*[#  13]+0.022*[#   9]+0.022*[#  12]+
          +0.005*[#  15]+0.005*[#  16]+0.005*[#  17]+
    |psi|^2 = 0.999
==== e(  10) =    13.90877 eV ==== 
     psi = 0.313*[#  10]+0.313*[#  11]+0.313*[#  13]+0.022*[#   9]+0.022*[#  12]+
          +0.005*[#  15]+0.005*[#  16]+0.005*[#  17]+
    |psi|^2 = 0.999
==== e(  11) =    14.14970 eV ==== 
     psi = 0.285*[#  10]+0.285*[#  11]+0.285*[#  13]+0.042*[#  15]+0.042*[#  16]+
          +0.042*[#  17]+0.011*[#   2]+0.003*[#  14]+0.002*[#   6]+0.002*[#   7]+
          +0.002*[#   8]+
    |psi|^2 = 0.998
==== e(  12) =    16.28936 eV ==== 
     psi = 0.339*[#   9]+0.339*[#  12]+0.102*[#  15]+0.102*[#  16]+0.102*[#  17]+
          +0.004*[#  10]+0.004*[#  11]+0.004*[#  13]+
    |psi|^2 = 0.998
==== e(  13) =    16.28936 eV ==== 
     psi = 0.339*[#   9]+0.339*[#  12]+0.102*[#  15]+0.102*[#  16]+0.102*[#  17]+
          +0.004*[#  10]+0.004*[#  11]+0.004*[#  13]+
    |psi|^2 = 0.998
==== e(  14) =    19.64861 eV ==== 
     psi = 0.216*[#   6]+0.216*[#   7]+0.216*[#   8]+0.210*[#  14]+0.014*[#  15]+
          +0.014*[#  16]+0.014*[#  17]+0.009*[#   2]+0.006*[#   1]+0.003*[#   3]+
          +0.003*[#   4]+0.003*[#   5]+
    |psi|^2 = 0.925
==== e(  15) =    23.93052 eV ==== 
     psi = 0.714*[#   2]+0.060*[#  15]+0.060*[#  16]+0.060*[#  17]+0.012*[#   1]+
          +0.006*[#   6]+0.006*[#   7]+0.006*[#   8]+0.003*[#  10]+0.003*[#  11]+
          +0.003*[#  13]+
    |psi|^2 = 0.931

 k =   0.3040372829 -0.1013457610 -0.1013457610
==== e(   1) =   -71.85891 eV ==== 
     psi = 0.982*[#   1]+0.004*[#   2]+0.003*[#  15]+0.003*[#  16]+0.003*[#  17]+
          +0.001*[#   6]+0.001*[#   7]+0.001*[#   8]+
    |psi|^2 = 1.000
==== e(   2) =   -37.83997 eV ==== 
     psi = 0.328*[#   3]+0.328*[#   4]+0.328*[#   5]+0.004*[#   6]+0.004*[#   7]+
          +0.004*[#   8]+0.001*[#  14]+
    |psi|^2 = 0.998
==== e(   3) =   -37.74495 eV ==== 
     psi = 0.330*[#   3]+0.330*[#   4]+0.330*[#   5]+0.002*[#   6]+0.002*[#   7]+
          +0.002*[#   8]+
    |psi|^2 = 0.998
==== e(   4) =   -37.73453 eV ==== 
     psi = 0.330*[#   3]+0.330*[#   4]+0.330*[#   5]+0.002*[#   6]+0.002*[#   7]+
          +0.002*[#   8]+
    |psi|^2 = 0.999
==== e(   5) =    -4.59592 eV ==== 
     psi = 0.788*[#  14]+0.065*[#   6]+0.065*[#   7]+0.065*[#   8]+0.004*[#   9]+
          +0.004*[#  12]+0.002*[#   3]+0.002*[#   4]+0.002*[#   5]+
    |psi|^2 = 0.999
==== e(   6) =     6.45438 eV ==== 
     psi = 0.214*[#  15]+0.214*[#  16]+0.214*[#  17]+0.186*[#   2]+0.042*[#  10]+
          +0.042*[#  11]+0.042*[#  13]+0.012*[#   6]+0.012*[#   7]+0.012*[#   8]+
          +0.005*[#   1]+
    |psi|^2 = 0.999
==== e(   7) =     8.75660 eV ==== 
     psi = 0.227*[#  15]+0.227*[#  16]+0.227*[#  17]+0.107*[#   9]+0.107*[#  12]+
          +0.019*[#  10]+0.019*[#  11]+0.019*[#  13]+0.013*[#   6]+0.013*[#   7]+
          +0.013*[#   8]+
    |psi|^2 = 0.996
==== e(   8) =     8.89423 eV ==== 
     psi = 0.228*[#  15]+0.228*[#  16]+0.228*[#  17]+0.136*[#   9]+0.136*[#  12]+
          +0.011*[#  10]+0.011*[#  11]+0.011*[#  13]+0.003*[#   6]+0.003*[#   7]+
          +0.003*[#   8]+
    |psi|^2 = 0.997
==== e(   9) =    13.84216 eV ==== 
     psi = 0.299*[#  10]+0.299*[#  11]+0.299*[#  13]+0.033*[#   9]+0.033*[#  12]+
          +0.008*[#  15]+0.008*[#  16]+0.008*[#  17]+0.004*[#  14]+0.002*[#   6]+
          +0.002*[#   7]+0.002*[#   8]+
    |psi|^2 = 0.998
==== e(  10) =    13.92722 eV ==== 
     psi = 0.320*[#  10]+0.320*[#  11]+0.320*[#  13]+0.015*[#   9]+0.015*[#  12]+
          +0.004*[#  15]+0.004*[#  16]+0.004*[#  17]+
    |psi|^2 = 0.999
==== e(  11) =    14.16355 eV ==== 
     psi = 0.285*[#  10]+0.285*[#  11]+0.285*[#  13]+0.043*[#  15]+0.043*[#  16]+
          +0.043*[#  17]+0.012*[#   2]+0.002*[#   9]+0.002*[#  12]+
    |psi|^2 = 0.998
==== e(  12) =    15.81988 eV ==== 
     psi = 0.344*[#   9]+0.344*[#  12]+0.074*[#  15]+0.074*[#  16]+0.074*[#  17]+
          +0.025*[#  14]+0.011*[#  10]+0.011*[#  11]+0.011*[#  13]+0.008*[#   6]+
          +0.008*[#   7]+0.008*[#   8]+0.002*[#   2]+
    |psi|^2 = 0.997
==== e(  13) =    16.27280 eV ==== 
     psi = 0.349*[#   9]+0.349*[#  12]+0.097*[#  15]+0.097*[#  16]+0.097*[#  17]+
          +0.003*[#  10]+0.003*[#  11]+0.003*[#  13]+
    |psi|^2 = 0.998
==== e(  14) =    20.62983 eV ==== 
     psi = 0.222*[#   6]+0.222*[#   7]+0.222*[#   8]+0.156*[#  14]+0.019*[#  15]+
          +0.019*[#  16]+0.019*[#  17]+0.008*[#   9]+0.008*[#  12]+0.004*[#  10]+
          +0.004*[#  11]+0.004*[#  13]+0.002*[#   2]+0.002*[#   3]+0.002*[#   4]+
          +0.002*[#   5]+
    |psi|^2 = 0.916
==== e(  15) =    23.70602 eV ==== 
     psi = 0.688*[#   2]+0.068*[#  15]+0.068*[#  16]+0.068*[#  17]+0.018*[#   6]+
          +0.018*[#   7]+0.018*[#   8]+0.008*[#   1]+0.003*[#  10]+0.003*[#  11]+
          +0.003*[#  13]+
    |psi|^2 = 0.964

Lowdin Charges: 

     Atom #   1: total charge =  15.4874, s =  2.2590, p =  6.7821, d =  6.4463, 
                 spin up      =   9.4883, s =  1.1417, 
                 spin up      =   9.4883, p =  3.3952, pz=  1.1317, px=  1.1317, py=  1.1317, 
                 spin up      =   9.4883, d =  4.9515, dz2=  0.9821, dxz=  0.9958, dyz=  0.9958, dx2-y2=  0.9821, dxy=  0.9958, 
                 spin down    =   5.9990, s =  1.1174, 
                 spin down    =   5.9990, p =  3.3869, pz=  1.1290, px=  1.1290, py=  1.1290, 
                 spin down    =   5.9990, d =  1.4948, dz2=  0.1838, dxz=  0.3757, dyz=  0.3757, dx2-y2=  0.1838, dxy=  0.3757, 
                 polarization =   3.4893, s =  0.0243, p =  0.0083, d =  3.4567, 
     Atom #   2: total charge =   6.4695, s =  1.6396, p =  4.8299, d =  0.0000, 
                 spin up      =   3.4443, s =  0.8424, 
                 spin up      =   3.4443, p =  2.6019, pz=  0.8673, px=  0.8673, py=  0.8673, 
                 spin up      =   3.4443, d =  0.0000, dz2=  0.0000, dxz=  0.0000, dyz=  0.0000, dx2-y2=  0.0000, dxy=  0.0000, 
                 spin down    =   3.0252, s =  0.7971, 
                 spin down    =   3.0252, p =  2.2281, pz=  0.7427, px=  0.7427, py=  0.7427, 
                 spin down    =   3.0252, d =  0.0000, dz2=  0.0000, dxz=  0.0000, dyz=  0.0000, dx2-y2=  0.0000, dxy=  0.0000, 
                 polarization =   0.4191, s =  0.0453, p =  0.3738, d =  0.0000, 
     Spilling Parameter:   0.0020

     PROJWFC      :     3.23s CPU         3.50s WALL


   This run was terminated on:  18:20:47  15Aug2017            

=------------------------------------------------------------------------------=
   JOB DONE.
=------------------------------------------------------------------------------=
