
     Program PWSCF v.6.1 (svn rev. 13369) starts on 15Aug2017 at 18:20:48 

     This program is part of the open-source Quantum ESPRESSO suite
     for quantum simulation of materials; please cite
         "P. Giannozzi et al., J. Phys.:Condens. Matter 21 395502 (2009);
          URL http://www.quantum-espresso.org", 
     in publications or presentations arising from this work. More details at
     http://www.quantum-espresso.org/quote

     Parallel version (MPI), running on     8 processors
     R & G space division:  proc/nbgrp/npool/nimage =       8
     Waiting for input...
     Reading input from standard input

     Current dimensions of program PWSCF are:
     Max number of different atomic species (ntypx) = 10
     Max number of k-points (npk) =  40000
     Max angular momentum in pseudopotentials (lmaxx) =  3

     Atomic positions and unit cell read from directory:
     ./outdir/pwscf.save/

               file Fe.pz-spn-kjpaw_psl.0.2.1.UPF: wavefunction(s)  3D renormalized
               file O.pz-n-kjpaw_psl.0.1.UPF: wavefunction(s)  2P renormalized

     Subspace diagonalization in iterative solution of the eigenvalue problem:
     a serial algorithm will be used


     Parallelization info
     --------------------
     sticks:   dense  smooth     PW     G-vecs:    dense   smooth      PW
     Min          33      33     11                  371      371      70
     Max          35      35     12                  372      372      71
     Sum         271     271     91                 2975     2975     561



     bravais-lattice index     =            0
     lattice parameter (alat)  =       1.8900  a.u.
     unit-cell volume          =     135.7822 (a.u.)^3
     number of atoms/cell      =            2
     number of atomic types    =            2
     number of electrons       =        22.00
     number of Kohn-Sham states=           15
     kinetic-energy cutoff     =      30.0000  Ry
     charge density cutoff     =     120.0000  Ry
     Exchange-correlation      =  SLA  PZ   NOGX NOGC ( 1  1  0  0 0 0)

     celldm(1)=   1.890000  celldm(2)=   0.000000  celldm(3)=   0.000000
     celldm(4)=   0.000000  celldm(5)=   0.000000  celldm(6)=   0.000000

     crystal axes: (cart. coord. in units of alat)
               a(1) = (   2.158452   2.158452   0.000000 )  
               a(2) = (   2.158452   0.000000   2.158452 )  
               a(3) = (   0.000000   2.158452   2.158452 )  

     reciprocal axes: (cart. coord. in units 2 pi/alat)
               b(1) = (  0.231647  0.231647 -0.231647 )  
               b(2) = (  0.231647 -0.231647  0.231647 )  
               b(3) = ( -0.231647  0.231647  0.231647 )  


     PseudoPot. # 1 for Fe read from file:
     ./Fe.pz-spn-kjpaw_psl.0.2.1.UPF
     MD5 check sum: 27df73d5ef6bc58e09d33ce26ec3cbe0
     Pseudo is Projector augmented-wave + core cor, Zval = 16.0
     Generated using "atomic" code by A. Dal Corso  v.5.0.99 svn rev. 10869
     Shape of augmentation charge: PSQ
     Using radial grid of 1191 points,  6 beta functions with: 
                l(1) =   0
                l(2) =   0
                l(3) =   1
                l(4) =   1
                l(5) =   2
                l(6) =   2
     Q(r) pseudized with 0 coefficients 


     PseudoPot. # 2 for  O read from file:
     ./O.pz-n-kjpaw_psl.0.1.UPF
     MD5 check sum: ca354609ecacc13f4887e8db23a80a40
     Pseudo is Projector augmented-wave + core cor, Zval =  6.0
     Generated using "atomic" code by A. Dal Corso  v.5.0.99 svn rev. 10869
     Shape of augmentation charge: BESSEL
     Using radial grid of 1095 points,  4 beta functions with: 
                l(1) =   0
                l(2) =   0
                l(3) =   1
                l(4) =   1
     Q(r) pseudized with 0 coefficients 


     atomic species   valence    mass     pseudopotential
        Fe            16.00     1.00000     Fe( 1.00)
        O              6.00     1.00000      O( 1.00)

     Starting magnetic structure 
     atomic species   magnetization
        Fe           1.000
        O            0.000

     48 Sym. Ops., with inversion, found


                                    s                        frac. trans.

      isym =  1     identity                                     

 cryst.   s( 1) = (     1          0          0      )
                  (     0          1          0      )
                  (     0          0          1      )

 cart.    s( 1) = (  1.0000000  0.0000000  0.0000000 )
                  (  0.0000000  1.0000000  0.0000000 )
                  (  0.0000000  0.0000000  1.0000000 )


      isym =  2     180 deg rotation - cart. axis [0,0,1]        

 cryst.   s( 2) = (    -1          0          0      )
                  (    -1          0          1      )
                  (    -1          1          0      )

 cart.    s( 2) = ( -1.0000000  0.0000000  0.0000000 )
                  (  0.0000000 -1.0000000  0.0000000 )
                  (  0.0000000  0.0000000  1.0000000 )


      isym =  3     180 deg rotation - cart. axis [0,1,0]        

 cryst.   s( 3) = (     0         -1          1      )
                  (     0         -1          0      )
                  (     1         -1          0      )

 cart.    s( 3) = ( -1.0000000  0.0000000  0.0000000 )
                  (  0.0000000  1.0000000  0.0000000 )
                  (  0.0000000  0.0000000 -1.0000000 )


      isym =  4     180 deg rotation - cart. axis [1,0,0]        

 cryst.   s( 4) = (     0          1         -1      )
                  (     1          0         -1      )
                  (     0          0         -1      )

 cart.    s( 4) = (  1.0000000  0.0000000  0.0000000 )
                  (  0.0000000 -1.0000000  0.0000000 )
                  (  0.0000000  0.0000000 -1.0000000 )


      isym =  5     180 deg rotation - cart. axis [1,1,0]        

 cryst.   s( 5) = (     1          0          0      )
                  (     1         -1          0      )
                  (     1          0         -1      )

 cart.    s( 5) = (  0.0000000  1.0000000  0.0000000 )
                  (  1.0000000  0.0000000  0.0000000 )
                  (  0.0000000  0.0000000 -1.0000000 )


      isym =  6     180 deg rotation - cart. axis [1,-1,0]       

 cryst.   s( 6) = (    -1          0          0      )
                  (     0          0         -1      )
                  (     0         -1          0      )

 cart.    s( 6) = (  0.0000000 -1.0000000  0.0000000 )
                  ( -1.0000000  0.0000000  0.0000000 )
                  (  0.0000000  0.0000000 -1.0000000 )


      isym =  7      90 deg rotation - cart. axis [0,0,-1]       

 cryst.   s( 7) = (     0          1         -1      )
                  (    -1          1          0      )
                  (     0          1          0      )

 cart.    s( 7) = (  0.0000000  1.0000000  0.0000000 )
                  ( -1.0000000  0.0000000  0.0000000 )
                  (  0.0000000  0.0000000  1.0000000 )


      isym =  8      90 deg rotation - cart. axis [0,0,1]        

 cryst.   s( 8) = (     0         -1          1      )
                  (     0          0          1      )
                  (    -1          0          1      )

 cart.    s( 8) = (  0.0000000 -1.0000000  0.0000000 )
                  (  1.0000000  0.0000000  0.0000000 )
                  (  0.0000000  0.0000000  1.0000000 )


      isym =  9     180 deg rotation - cart. axis [1,0,1]        

 cryst.   s( 9) = (    -1          1          0      )
                  (     0          1          0      )
                  (     0          1         -1      )

 cart.    s( 9) = (  0.0000000  0.0000000  1.0000000 )
                  (  0.0000000 -1.0000000  0.0000000 )
                  (  1.0000000  0.0000000  0.0000000 )


      isym = 10     180 deg rotation - cart. axis [-1,0,1]       

 cryst.   s(10) = (     0          0         -1      )
                  (     0         -1          0      )
                  (    -1          0          0      )

 cart.    s(10) = (  0.0000000  0.0000000 -1.0000000 )
                  (  0.0000000 -1.0000000  0.0000000 )
                  ( -1.0000000  0.0000000  0.0000000 )


      isym = 11      90 deg rotation - cart. axis [0,1,0]        

 cryst.   s(11) = (     1         -1          0      )
                  (     1          0         -1      )
                  (     1          0          0      )

 cart.    s(11) = (  0.0000000  0.0000000  1.0000000 )
                  (  0.0000000  1.0000000  0.0000000 )
                  ( -1.0000000  0.0000000  0.0000000 )


      isym = 12      90 deg rotation - cart. axis [0,-1,0]       

 cryst.   s(12) = (     0          0          1      )
                  (    -1          0          1      )
                  (     0         -1          1      )

 cart.    s(12) = (  0.0000000  0.0000000 -1.0000000 )
                  (  0.0000000  1.0000000  0.0000000 )
                  (  1.0000000  0.0000000  0.0000000 )


      isym = 13     180 deg rotation - cart. axis [0,1,1]        

 cryst.   s(13) = (    -1          0          1      )
                  (     0         -1          1      )
                  (     0          0          1      )

 cart.    s(13) = ( -1.0000000  0.0000000  0.0000000 )
                  (  0.0000000  0.0000000  1.0000000 )
                  (  0.0000000  1.0000000  0.0000000 )


      isym = 14     180 deg rotation - cart. axis [0,1,-1]       

 cryst.   s(14) = (     0         -1          0      )
                  (    -1          0          0      )
                  (     0          0         -1      )

 cart.    s(14) = ( -1.0000000  0.0000000  0.0000000 )
                  (  0.0000000  0.0000000 -1.0000000 )
                  (  0.0000000 -1.0000000  0.0000000 )


      isym = 15      90 deg rotation - cart. axis [-1,0,0]       

 cryst.   s(15) = (     1          0         -1      )
                  (     1          0          0      )
                  (     1         -1          0      )

 cart.    s(15) = (  1.0000000  0.0000000  0.0000000 )
                  (  0.0000000  0.0000000  1.0000000 )
                  (  0.0000000 -1.0000000  0.0000000 )


      isym = 16      90 deg rotation - cart. axis [1,0,0]        

 cryst.   s(16) = (     0          1          0      )
                  (     0          1         -1      )
                  (    -1          1          0      )

 cart.    s(16) = (  1.0000000  0.0000000  0.0000000 )
                  (  0.0000000  0.0000000 -1.0000000 )
                  (  0.0000000  1.0000000  0.0000000 )


      isym = 17     120 deg rotation - cart. axis [-1,-1,-1]     

 cryst.   s(17) = (     0          1          0      )
                  (     0          0          1      )
                  (     1          0          0      )

 cart.    s(17) = (  0.0000000  1.0000000  0.0000000 )
                  (  0.0000000  0.0000000  1.0000000 )
                  (  1.0000000  0.0000000  0.0000000 )


      isym = 18     120 deg rotation - cart. axis [-1,1,1]       

 cryst.   s(18) = (     0         -1          0      )
                  (     1         -1          0      )
                  (     0         -1          1      )

 cart.    s(18) = (  0.0000000 -1.0000000  0.0000000 )
                  (  0.0000000  0.0000000  1.0000000 )
                  ( -1.0000000  0.0000000  0.0000000 )


      isym = 19     120 deg rotation - cart. axis [1,1,-1]       

 cryst.   s(19) = (     1          0         -1      )
                  (     0          0         -1      )
                  (     0          1         -1      )

 cart.    s(19) = (  0.0000000  1.0000000  0.0000000 )
                  (  0.0000000  0.0000000 -1.0000000 )
                  ( -1.0000000  0.0000000  0.0000000 )


      isym = 20     120 deg rotation - cart. axis [1,-1,1]       

 cryst.   s(20) = (    -1          0          1      )
                  (    -1          1          0      )
                  (    -1          0          0      )

 cart.    s(20) = (  0.0000000 -1.0000000  0.0000000 )
                  (  0.0000000  0.0000000 -1.0000000 )
                  (  1.0000000  0.0000000  0.0000000 )


      isym = 21     120 deg rotation - cart. axis [1,1,1]        

 cryst.   s(21) = (     0          0          1      )
                  (     1          0          0      )
                  (     0          1          0      )

 cart.    s(21) = (  0.0000000  0.0000000  1.0000000 )
                  (  1.0000000  0.0000000  0.0000000 )
                  (  0.0000000  1.0000000  0.0000000 )


      isym = 22     120 deg rotation - cart. axis [-1,1,-1]      

 cryst.   s(22) = (     0          0         -1      )
                  (     0          1         -1      )
                  (     1          0         -1      )

 cart.    s(22) = (  0.0000000  0.0000000  1.0000000 )
                  ( -1.0000000  0.0000000  0.0000000 )
                  (  0.0000000 -1.0000000  0.0000000 )


      isym = 23     120 deg rotation - cart. axis [1,-1,-1]      

 cryst.   s(23) = (    -1          1          0      )
                  (    -1          0          0      )
                  (    -1          0          1      )

 cart.    s(23) = (  0.0000000  0.0000000 -1.0000000 )
                  ( -1.0000000  0.0000000  0.0000000 )
                  (  0.0000000  1.0000000  0.0000000 )


      isym = 24     120 deg rotation - cart. axis [-1,-1,1]      

 cryst.   s(24) = (     1         -1          0      )
                  (     0         -1          1      )
                  (     0         -1          0      )

 cart.    s(24) = (  0.0000000  0.0000000 -1.0000000 )
                  (  1.0000000  0.0000000  0.0000000 )
                  (  0.0000000 -1.0000000  0.0000000 )


      isym = 25     inversion                                    

 cryst.   s(25) = (    -1          0          0      )
                  (     0         -1          0      )
                  (     0          0         -1      )

 cart.    s(25) = ( -1.0000000  0.0000000  0.0000000 )
                  (  0.0000000 -1.0000000  0.0000000 )
                  (  0.0000000  0.0000000 -1.0000000 )


      isym = 26     inv. 180 deg rotation - cart. axis [0,0,1]   

 cryst.   s(26) = (     1          0          0      )
                  (     1          0         -1      )
                  (     1         -1          0      )

 cart.    s(26) = (  1.0000000  0.0000000  0.0000000 )
                  (  0.0000000  1.0000000  0.0000000 )
                  (  0.0000000  0.0000000 -1.0000000 )


      isym = 27     inv. 180 deg rotation - cart. axis [0,1,0]   

 cryst.   s(27) = (     0          1         -1      )
                  (     0          1          0      )
                  (    -1          1          0      )

 cart.    s(27) = (  1.0000000  0.0000000  0.0000000 )
                  (  0.0000000 -1.0000000  0.0000000 )
                  (  0.0000000  0.0000000  1.0000000 )


      isym = 28     inv. 180 deg rotation - cart. axis [1,0,0]   

 cryst.   s(28) = (     0         -1          1      )
                  (    -1          0          1      )
                  (     0          0          1      )

 cart.    s(28) = ( -1.0000000  0.0000000  0.0000000 )
                  (  0.0000000  1.0000000  0.0000000 )
                  (  0.0000000  0.0000000  1.0000000 )


      isym = 29     inv. 180 deg rotation - cart. axis [1,1,0]   

 cryst.   s(29) = (    -1          0          0      )
                  (    -1          1          0      )
                  (    -1          0          1      )

 cart.    s(29) = (  0.0000000 -1.0000000  0.0000000 )
                  ( -1.0000000  0.0000000  0.0000000 )
                  (  0.0000000  0.0000000  1.0000000 )


      isym = 30     inv. 180 deg rotation - cart. axis [1,-1,0]  

 cryst.   s(30) = (     1          0          0      )
                  (     0          0          1      )
                  (     0          1          0      )

 cart.    s(30) = (  0.0000000  1.0000000  0.0000000 )
                  (  1.0000000  0.0000000  0.0000000 )
                  (  0.0000000  0.0000000  1.0000000 )


      isym = 31     inv.  90 deg rotation - cart. axis [0,0,-1]  

 cryst.   s(31) = (     0         -1          1      )
                  (     1         -1          0      )
                  (     0         -1          0      )

 cart.    s(31) = (  0.0000000 -1.0000000  0.0000000 )
                  (  1.0000000  0.0000000  0.0000000 )
                  (  0.0000000  0.0000000 -1.0000000 )


      isym = 32     inv.  90 deg rotation - cart. axis [0,0,1]   

 cryst.   s(32) = (     0          1         -1      )
                  (     0          0         -1      )
                  (     1          0         -1      )

 cart.    s(32) = (  0.0000000  1.0000000  0.0000000 )
                  ( -1.0000000  0.0000000  0.0000000 )
                  (  0.0000000  0.0000000 -1.0000000 )


      isym = 33     inv. 180 deg rotation - cart. axis [1,0,1]   

 cryst.   s(33) = (     1         -1          0      )
                  (     0         -1          0      )
                  (     0         -1          1      )

 cart.    s(33) = (  0.0000000  0.0000000 -1.0000000 )
                  (  0.0000000  1.0000000  0.0000000 )
                  ( -1.0000000  0.0000000  0.0000000 )


      isym = 34     inv. 180 deg rotation - cart. axis [-1,0,1]  

 cryst.   s(34) = (     0          0          1      )
                  (     0          1          0      )
                  (     1          0          0      )

 cart.    s(34) = (  0.0000000  0.0000000  1.0000000 )
                  (  0.0000000  1.0000000  0.0000000 )
                  (  1.0000000  0.0000000  0.0000000 )


      isym = 35     inv.  90 deg rotation - cart. axis [0,1,0]   

 cryst.   s(35) = (    -1          1          0      )
                  (    -1          0          1      )
                  (    -1          0          0      )

 cart.    s(35) = (  0.0000000  0.0000000 -1.0000000 )
                  (  0.0000000 -1.0000000  0.0000000 )
                  (  1.0000000  0.0000000  0.0000000 )


      isym = 36     inv.  90 deg rotation - cart. axis [0,-1,0]  

 cryst.   s(36) = (     0          0         -1      )
                  (     1          0         -1      )
                  (     0          1         -1      )

 cart.    s(36) = (  0.0000000  0.0000000  1.0000000 )
                  (  0.0000000 -1.0000000  0.0000000 )
                  ( -1.0000000  0.0000000  0.0000000 )


      isym = 37     inv. 180 deg rotation - cart. axis [0,1,1]   

 cryst.   s(37) = (     1          0         -1      )
                  (     0          1         -1      )
                  (     0          0         -1      )

 cart.    s(37) = (  1.0000000  0.0000000  0.0000000 )
                  (  0.0000000  0.0000000 -1.0000000 )
                  (  0.0000000 -1.0000000  0.0000000 )


      isym = 38     inv. 180 deg rotation - cart. axis [0,1,-1]  

 cryst.   s(38) = (     0          1          0      )
                  (     1          0          0      )
                  (     0          0          1      )

 cart.    s(38) = (  1.0000000  0.0000000  0.0000000 )
                  (  0.0000000  0.0000000  1.0000000 )
                  (  0.0000000  1.0000000  0.0000000 )


      isym = 39     inv.  90 deg rotation - cart. axis [-1,0,0]  

 cryst.   s(39) = (    -1          0          1      )
                  (    -1          0          0      )
                  (    -1          1          0      )

 cart.    s(39) = ( -1.0000000  0.0000000  0.0000000 )
                  (  0.0000000  0.0000000 -1.0000000 )
                  (  0.0000000  1.0000000  0.0000000 )


      isym = 40     inv.  90 deg rotation - cart. axis [1,0,0]   

 cryst.   s(40) = (     0         -1          0      )
                  (     0         -1          1      )
                  (     1         -1          0      )

 cart.    s(40) = ( -1.0000000  0.0000000  0.0000000 )
                  (  0.0000000  0.0000000  1.0000000 )
                  (  0.0000000 -1.0000000  0.0000000 )


      isym = 41     inv. 120 deg rotation - cart. axis [-1,-1,-1]

 cryst.   s(41) = (     0         -1          0      )
                  (     0          0         -1      )
                  (    -1          0          0      )

 cart.    s(41) = (  0.0000000 -1.0000000  0.0000000 )
                  (  0.0000000  0.0000000 -1.0000000 )
                  ( -1.0000000  0.0000000  0.0000000 )


      isym = 42     inv. 120 deg rotation - cart. axis [-1,1,1]  

 cryst.   s(42) = (     0          1          0      )
                  (    -1          1          0      )
                  (     0          1         -1      )

 cart.    s(42) = (  0.0000000  1.0000000  0.0000000 )
                  (  0.0000000  0.0000000 -1.0000000 )
                  (  1.0000000  0.0000000  0.0000000 )


      isym = 43     inv. 120 deg rotation - cart. axis [1,1,-1]  

 cryst.   s(43) = (    -1          0          1      )
                  (     0          0          1      )
                  (     0         -1          1      )

 cart.    s(43) = (  0.0000000 -1.0000000  0.0000000 )
                  (  0.0000000  0.0000000  1.0000000 )
                  (  1.0000000  0.0000000  0.0000000 )


      isym = 44     inv. 120 deg rotation - cart. axis [1,-1,1]  

 cryst.   s(44) = (     1          0         -1      )
                  (     1         -1          0      )
                  (     1          0          0      )

 cart.    s(44) = (  0.0000000  1.0000000  0.0000000 )
                  (  0.0000000  0.0000000  1.0000000 )
                  ( -1.0000000  0.0000000  0.0000000 )


      isym = 45     inv. 120 deg rotation - cart. axis [1,1,1]   

 cryst.   s(45) = (     0          0         -1      )
                  (    -1          0          0      )
                  (     0         -1          0      )

 cart.    s(45) = (  0.0000000  0.0000000 -1.0000000 )
                  ( -1.0000000  0.0000000  0.0000000 )
                  (  0.0000000 -1.0000000  0.0000000 )


      isym = 46     inv. 120 deg rotation - cart. axis [-1,1,-1] 

 cryst.   s(46) = (     0          0          1      )
                  (     0         -1          1      )
                  (    -1          0          1      )

 cart.    s(46) = (  0.0000000  0.0000000 -1.0000000 )
                  (  1.0000000  0.0000000  0.0000000 )
                  (  0.0000000  1.0000000  0.0000000 )


      isym = 47     inv. 120 deg rotation - cart. axis [1,-1,-1] 

 cryst.   s(47) = (     1         -1          0      )
                  (     1          0          0      )
                  (     1          0         -1      )

 cart.    s(47) = (  0.0000000  0.0000000  1.0000000 )
                  (  1.0000000  0.0000000  0.0000000 )
                  (  0.0000000 -1.0000000  0.0000000 )


      isym = 48     inv. 120 deg rotation - cart. axis [-1,-1,1] 

 cryst.   s(48) = (    -1          1          0      )
                  (     0          1         -1      )
                  (     0          1          0      )

 cart.    s(48) = (  0.0000000  0.0000000  1.0000000 )
                  ( -1.0000000  0.0000000  0.0000000 )
                  (  0.0000000  1.0000000  0.0000000 )


   Cartesian axes

     site n.     atom                  positions (alat units)
         1           Fe  tau(   1) = (   0.0000000   0.0000000   0.0000000  )
         2           O   tau(   2) = (   0.0000000   0.0000000   2.1584524  )

   Crystallographic axes

     site n.     atom                  positions (cryst. coord.)
         1           Fe  tau(   1) = (  0.0000000  0.0000000  0.0000000  )
         2           O   tau(   2) = ( -0.5000000  0.5000000  0.5000000  )

     number of k points=    89  gaussian smearing, width (Ry)=  0.0200
                       cart. coord. in units 2pi/alat
        k(    1) = (   0.0000000   0.0000000   0.0000000), wk =   0.0112360
        k(    2) = (   0.0154432   0.0000000   0.0000000), wk =   0.0112360
        k(    3) = (   0.0308863   0.0000000   0.0000000), wk =   0.0112360
        k(    4) = (   0.0463295   0.0000000   0.0000000), wk =   0.0112360
        k(    5) = (   0.0617727   0.0000000   0.0000000), wk =   0.0112360
        k(    6) = (   0.0772158   0.0000000   0.0000000), wk =   0.0112360
        k(    7) = (   0.0926590   0.0000000   0.0000000), wk =   0.0112360
        k(    8) = (   0.1081021   0.0000000   0.0000000), wk =   0.0112360
        k(    9) = (   0.1235453   0.0000000   0.0000000), wk =   0.0112360
        k(   10) = (   0.1389885   0.0000000   0.0000000), wk =   0.0112360
        k(   11) = (   0.1544316   0.0000000   0.0000000), wk =   0.0112360
        k(   12) = (   0.1698748   0.0000000   0.0000000), wk =   0.0112360
        k(   13) = (   0.1853180   0.0000000   0.0000000), wk =   0.0112360
        k(   14) = (   0.2007611   0.0000000   0.0000000), wk =   0.0112360
        k(   15) = (   0.2162043   0.0000000   0.0000000), wk =   0.0112360
        k(   16) = (   0.2316475   0.0000000   0.0000000), wk =   0.0112360
        k(   17) = (   0.2316475   0.0000000   0.0165462), wk =   0.0112360
        k(   18) = (   0.2316475   0.0000000   0.0330925), wk =   0.0112360
        k(   19) = (   0.2316475   0.0000000   0.0496387), wk =   0.0112360
        k(   20) = (   0.2316475   0.0000000   0.0661850), wk =   0.0112360
        k(   21) = (   0.2316475   0.0000000   0.0827312), wk =   0.0112360
        k(   22) = (   0.2316475  -0.0000000   0.0992775), wk =   0.0112360
        k(   23) = (   0.2316475  -0.0000000   0.1158237), wk =   0.0112360
        k(   24) = (   0.2200651   0.0000000   0.1274061), wk =   0.0112360
        k(   25) = (   0.2084827   0.0000000   0.1389885), wk =   0.0112360
        k(   26) = (   0.1969003   0.0000000   0.1505708), wk =   0.0112360
        k(   27) = (   0.1853180   0.0000000   0.1621532), wk =   0.0112360
        k(   28) = (   0.1737356   0.0000000   0.1737356), wk =   0.0112360
        k(   29) = (   0.1621532   0.0000000   0.1621532), wk =   0.0112360
        k(   30) = (   0.1505708   0.0000000   0.1505708), wk =   0.0112360
        k(   31) = (   0.1389885   0.0000000   0.1389885), wk =   0.0112360
        k(   32) = (   0.1274061   0.0000000   0.1274061), wk =   0.0112360
        k(   33) = (   0.1158237   0.0000000   0.1158237), wk =   0.0112360
        k(   34) = (   0.1042414   0.0000000   0.1042414), wk =   0.0112360
        k(   35) = (   0.0926590   0.0000000   0.0926590), wk =   0.0112360
        k(   36) = (   0.0810766   0.0000000   0.0810766), wk =   0.0112360
        k(   37) = (   0.0694942   0.0000000   0.0694942), wk =   0.0112360
        k(   38) = (   0.0579119   0.0000000   0.0579119), wk =   0.0112360
        k(   39) = (   0.0463295   0.0000000   0.0463295), wk =   0.0112360
        k(   40) = (   0.0347471   0.0000000   0.0347471), wk =   0.0112360
        k(   41) = (   0.0231647   0.0000000   0.0231647), wk =   0.0112360
        k(   42) = (   0.0115824   0.0000000   0.0115824), wk =   0.0112360
        k(   43) = (   0.0000000   0.0000000   0.0000000), wk =   0.0112360
        k(   44) = (   0.0089095   0.0089095   0.0089095), wk =   0.0112360
        k(   45) = (   0.0178190   0.0178190   0.0178190), wk =   0.0112360
        k(   46) = (   0.0267286   0.0267286   0.0267286), wk =   0.0112360
        k(   47) = (   0.0356381   0.0356381   0.0356381), wk =   0.0112360
        k(   48) = (   0.0445476   0.0445476   0.0445476), wk =   0.0112360
        k(   49) = (   0.0534571   0.0534571   0.0534571), wk =   0.0112360
        k(   50) = (   0.0623666   0.0623666   0.0623666), wk =   0.0112360
        k(   51) = (   0.0712761   0.0712761   0.0712761), wk =   0.0112360
        k(   52) = (   0.0801857   0.0801857   0.0801857), wk =   0.0112360
        k(   53) = (   0.0890952   0.0890952   0.0890952), wk =   0.0112360
        k(   54) = (   0.0980047   0.0980047   0.0980047), wk =   0.0112360
        k(   55) = (   0.1069142   0.1069142   0.1069142), wk =   0.0112360
        k(   56) = (   0.1158237   0.1158237   0.1158237), wk =   0.0112360
        k(   57) = (   0.1286930   0.1093891   0.1093891), wk =   0.0112360
        k(   58) = (   0.1415623   0.1029544   0.1029544), wk =   0.0112360
        k(   59) = (   0.1544316   0.0965198   0.0965198), wk =   0.0112360
        k(   60) = (   0.1673009   0.0900851   0.0900851), wk =   0.0112360
        k(   61) = (   0.1801702   0.0836505   0.0836505), wk =   0.0112360
        k(   62) = (   0.1930395   0.0772158   0.0772158), wk =   0.0112360
        k(   63) = (   0.2059088   0.0707812   0.0707812), wk =   0.0112360
        k(   64) = (   0.2187782   0.0643465   0.0643465), wk =   0.0112360
        k(   65) = (   0.2316475   0.0579119   0.0579119), wk =   0.0112360
        k(   66) = (   0.2316475   0.0463295   0.0694942), wk =   0.0112360
        k(   67) = (   0.2316475   0.0347471   0.0810766), wk =   0.0112360
        k(   68) = (   0.2316475   0.0231647   0.0926590), wk =   0.0112360
        k(   69) = (   0.2316475   0.0115824   0.1042414), wk =   0.0112360
        k(   70) = (   0.2316475  -0.0000000   0.1158237), wk =   0.0112360
        k(   71) = (   0.2200651   0.0115824   0.1158237), wk =   0.0112360
        k(   72) = (   0.2084827   0.0231647   0.1158237), wk =   0.0112360
        k(   73) = (   0.1969003   0.0347471   0.1158237), wk =   0.0112360
        k(   74) = (   0.1853180   0.0463295   0.1158237), wk =   0.0112360
        k(   75) = (   0.1737356   0.0579119   0.1158237), wk =   0.0112360
        k(   76) = (   0.1621532   0.0694942   0.1158237), wk =   0.0112360
        k(   77) = (   0.1505708   0.0810766   0.1158237), wk =   0.0112360
        k(   78) = (   0.1389885   0.0926590   0.1158237), wk =   0.0112360
        k(   79) = (   0.1274061   0.1042414   0.1158237), wk =   0.0112360
        k(   80) = (   0.1158237   0.1158237   0.1158237), wk =   0.0112360
        k(   81) = (   0.1222584   0.1029544   0.1222584), wk =   0.0112360
        k(   82) = (   0.1286930   0.0900851   0.1286930), wk =   0.0112360
        k(   83) = (   0.1351277   0.0772158   0.1351277), wk =   0.0112360
        k(   84) = (   0.1415623   0.0643465   0.1415623), wk =   0.0112360
        k(   85) = (   0.1479970   0.0514772   0.1479970), wk =   0.0112360
        k(   86) = (   0.1544316   0.0386079   0.1544316), wk =   0.0112360
        k(   87) = (   0.1608663   0.0257386   0.1608663), wk =   0.0112360
        k(   88) = (   0.1673009   0.0128693   0.1673009), wk =   0.0112360
        k(   89) = (   0.1737356   0.0000000   0.1737356), wk =   0.0112360

                       cryst. coord.
        k(    1) = (   0.0000000   0.0000000   0.0000000), wk =   0.0112360
        k(    2) = (   0.0333333   0.0333333   0.0000000), wk =   0.0112360
        k(    3) = (   0.0666667   0.0666667   0.0000000), wk =   0.0112360
        k(    4) = (   0.1000000   0.1000000   0.0000000), wk =   0.0112360
        k(    5) = (   0.1333333   0.1333333   0.0000000), wk =   0.0112360
        k(    6) = (   0.1666667   0.1666667   0.0000000), wk =   0.0112360
        k(    7) = (   0.2000000   0.2000000   0.0000000), wk =   0.0112360
        k(    8) = (   0.2333333   0.2333333   0.0000000), wk =   0.0112360
        k(    9) = (   0.2666667   0.2666667   0.0000000), wk =   0.0112360
        k(   10) = (   0.3000000   0.3000000   0.0000000), wk =   0.0112360
        k(   11) = (   0.3333333   0.3333333   0.0000000), wk =   0.0112360
        k(   12) = (   0.3666667   0.3666667   0.0000000), wk =   0.0112360
        k(   13) = (   0.4000000   0.4000000   0.0000000), wk =   0.0112360
        k(   14) = (   0.4333333   0.4333333   0.0000000), wk =   0.0112360
        k(   15) = (   0.4666667   0.4666667   0.0000000), wk =   0.0112360
        k(   16) = (   0.5000000   0.5000000   0.0000000), wk =   0.0112360
        k(   17) = (   0.5000000   0.5357143   0.0357143), wk =   0.0112360
        k(   18) = (   0.5000000   0.5714286   0.0714286), wk =   0.0112360
        k(   19) = (   0.5000000   0.6071429   0.1071429), wk =   0.0112360
        k(   20) = (   0.5000000   0.6428571   0.1428571), wk =   0.0112360
        k(   21) = (   0.5000000   0.6785714   0.1785714), wk =   0.0112360
        k(   22) = (   0.5000000   0.7142857   0.2142857), wk =   0.0112360
        k(   23) = (   0.5000000   0.7500000   0.2500000), wk =   0.0112360
        k(   24) = (   0.4750000   0.7500000   0.2750000), wk =   0.0112360
        k(   25) = (   0.4500000   0.7500000   0.3000000), wk =   0.0112360
        k(   26) = (   0.4250000   0.7500000   0.3250000), wk =   0.0112360
        k(   27) = (   0.4000000   0.7500000   0.3500000), wk =   0.0112360
        k(   28) = (   0.3750000   0.7500000   0.3750000), wk =   0.0112360
        k(   29) = (   0.3500000   0.7000000   0.3500000), wk =   0.0112360
        k(   30) = (   0.3250000   0.6500000   0.3250000), wk =   0.0112360
        k(   31) = (   0.3000000   0.6000000   0.3000000), wk =   0.0112360
        k(   32) = (   0.2750000   0.5500000   0.2750000), wk =   0.0112360
        k(   33) = (   0.2500000   0.5000000   0.2500000), wk =   0.0112360
        k(   34) = (   0.2250000   0.4500000   0.2250000), wk =   0.0112360
        k(   35) = (   0.2000000   0.4000000   0.2000000), wk =   0.0112360
        k(   36) = (   0.1750000   0.3500000   0.1750000), wk =   0.0112360
        k(   37) = (   0.1500000   0.3000000   0.1500000), wk =   0.0112360
        k(   38) = (   0.1250000   0.2500000   0.1250000), wk =   0.0112360
        k(   39) = (   0.1000000   0.2000000   0.1000000), wk =   0.0112360
        k(   40) = (   0.0750000   0.1500000   0.0750000), wk =   0.0112360
        k(   41) = (   0.0500000   0.1000000   0.0500000), wk =   0.0112360
        k(   42) = (   0.0250000   0.0500000   0.0250000), wk =   0.0112360
        k(   43) = (   0.0000000   0.0000000   0.0000000), wk =   0.0112360
        k(   44) = (   0.0384615   0.0384615   0.0384615), wk =   0.0112360
        k(   45) = (   0.0769231   0.0769231   0.0769231), wk =   0.0112360
        k(   46) = (   0.1153846   0.1153846   0.1153846), wk =   0.0112360
        k(   47) = (   0.1538462   0.1538462   0.1538462), wk =   0.0112360
        k(   48) = (   0.1923077   0.1923077   0.1923077), wk =   0.0112360
        k(   49) = (   0.2307692   0.2307692   0.2307692), wk =   0.0112360
        k(   50) = (   0.2692308   0.2692308   0.2692308), wk =   0.0112360
        k(   51) = (   0.3076923   0.3076923   0.3076923), wk =   0.0112360
        k(   52) = (   0.3461538   0.3461538   0.3461538), wk =   0.0112360
        k(   53) = (   0.3846154   0.3846154   0.3846154), wk =   0.0112360
        k(   54) = (   0.4230769   0.4230769   0.4230769), wk =   0.0112360
        k(   55) = (   0.4615385   0.4615385   0.4615385), wk =   0.0112360
        k(   56) = (   0.5000000   0.5000000   0.5000000), wk =   0.0112360
        k(   57) = (   0.5138889   0.5138889   0.4722222), wk =   0.0112360
        k(   58) = (   0.5277778   0.5277778   0.4444444), wk =   0.0112360
        k(   59) = (   0.5416667   0.5416667   0.4166667), wk =   0.0112360
        k(   60) = (   0.5555556   0.5555556   0.3888889), wk =   0.0112360
        k(   61) = (   0.5694444   0.5694444   0.3611111), wk =   0.0112360
        k(   62) = (   0.5833333   0.5833333   0.3333333), wk =   0.0112360
        k(   63) = (   0.5972222   0.5972222   0.3055556), wk =   0.0112360
        k(   64) = (   0.6111111   0.6111111   0.2777778), wk =   0.0112360
        k(   65) = (   0.6250000   0.6250000   0.2500000), wk =   0.0112360
        k(   66) = (   0.6000000   0.6500000   0.2500000), wk =   0.0112360
        k(   67) = (   0.5750000   0.6750000   0.2500000), wk =   0.0112360
        k(   68) = (   0.5500000   0.7000000   0.2500000), wk =   0.0112360
        k(   69) = (   0.5250000   0.7250000   0.2500000), wk =   0.0112360
        k(   70) = (   0.5000000   0.7500000   0.2500000), wk =   0.0112360
        k(   71) = (   0.5000000   0.7250000   0.2750000), wk =   0.0112360
        k(   72) = (   0.5000000   0.7000000   0.3000000), wk =   0.0112360
        k(   73) = (   0.5000000   0.6750000   0.3250000), wk =   0.0112360
        k(   74) = (   0.5000000   0.6500000   0.3500000), wk =   0.0112360
        k(   75) = (   0.5000000   0.6250000   0.3750000), wk =   0.0112360
        k(   76) = (   0.5000000   0.6000000   0.4000000), wk =   0.0112360
        k(   77) = (   0.5000000   0.5750000   0.4250000), wk =   0.0112360
        k(   78) = (   0.5000000   0.5500000   0.4500000), wk =   0.0112360
        k(   79) = (   0.5000000   0.5250000   0.4750000), wk =   0.0112360
        k(   80) = (   0.5000000   0.5000000   0.5000000), wk =   0.0112360
        k(   81) = (   0.4861111   0.5277778   0.4861111), wk =   0.0112360
        k(   82) = (   0.4722222   0.5555556   0.4722222), wk =   0.0112360
        k(   83) = (   0.4583333   0.5833333   0.4583333), wk =   0.0112360
        k(   84) = (   0.4444444   0.6111111   0.4444444), wk =   0.0112360
        k(   85) = (   0.4305556   0.6388889   0.4305556), wk =   0.0112360
        k(   86) = (   0.4166667   0.6666667   0.4166667), wk =   0.0112360
        k(   87) = (   0.4027778   0.6944444   0.4027778), wk =   0.0112360
        k(   88) = (   0.3888889   0.7222222   0.3888889), wk =   0.0112360
        k(   89) = (   0.3750000   0.7500000   0.3750000), wk =   0.0112360

     Dense  grid:     2975 G-vectors     FFT dimensions: (  24,  24,  24)

     Estimated max dynamical RAM per process >       0.46MB

     Estimated total allocated dynamical RAM >       3.72MB
     Generating pointlists ...
     new r_m :   0.4125 (alat units)  0.7796 (a.u.) for type    1
     new r_m :   0.4125 (alat units)  0.7796 (a.u.) for type    2

     Check: negative/imaginary core charge=   -0.007909    0.000000

     The potential is recalculated from file :
     ./outdir/pwscf.save/charge-density.dat


     negative rho (up, down):  8.432E-06 9.346E-04
     Starting wfc are   17 randomized atomic wfcs
     Checking if some PAW data can be deallocated... 
       node    0, deallocated PAW data for type:  2
       node    1, deallocated PAW data for type:  2
       node    2, deallocated PAW data for type:  2
       node    3, deallocated PAW data for type:  2
       node    4, deallocated PAW data for type:  1
       node    5, deallocated PAW data for type:  1
       node    6, deallocated PAW data for type:  1
       node    7, deallocated PAW data for type:  1

     Band Structure Calculation
     Davidson diagonalization with overlap

     Computing kpt #:     1
     total cpu time spent up to now is        1.1 secs

     Computing kpt #:     2
     total cpu time spent up to now is        1.2 secs

     Computing kpt #:     3
     total cpu time spent up to now is        1.2 secs

     Computing kpt #:     4
     total cpu time spent up to now is        1.2 secs

     Computing kpt #:     5
     total cpu time spent up to now is        1.3 secs

     Computing kpt #:     6
     total cpu time spent up to now is        1.3 secs

     Computing kpt #:     7
     total cpu time spent up to now is        1.3 secs

     Computing kpt #:     8
     total cpu time spent up to now is        1.3 secs

     Computing kpt #:     9
     total cpu time spent up to now is        1.4 secs

     Computing kpt #:    10
     total cpu time spent up to now is        1.4 secs

     Computing kpt #:    11
     total cpu time spent up to now is        1.4 secs

     Computing kpt #:    12
     total cpu time spent up to now is        1.5 secs

     Computing kpt #:    13
     total cpu time spent up to now is        1.5 secs

     Computing kpt #:    14
     total cpu time spent up to now is        1.5 secs

     Computing kpt #:    15
     total cpu time spent up to now is        1.5 secs

     Computing kpt #:    16
     total cpu time spent up to now is        1.5 secs

     Computing kpt #:    17
     total cpu time spent up to now is        1.6 secs

     Computing kpt #:    18
     total cpu time spent up to now is        1.6 secs

     Computing kpt #:    19
     total cpu time spent up to now is        1.6 secs

     Computing kpt #:    20
     total cpu time spent up to now is        1.6 secs

     Computing kpt #:    21
     total cpu time spent up to now is        1.7 secs

     Computing kpt #:    22
     total cpu time spent up to now is        1.7 secs

     Computing kpt #:    23
     total cpu time spent up to now is        1.7 secs

     Computing kpt #:    24
     total cpu time spent up to now is        1.8 secs

     Computing kpt #:    25
     total cpu time spent up to now is        1.8 secs

     Computing kpt #:    26
     total cpu time spent up to now is        1.8 secs

     Computing kpt #:    27
     total cpu time spent up to now is        1.9 secs

     Computing kpt #:    28
     total cpu time spent up to now is        1.9 secs

     Computing kpt #:    29
     total cpu time spent up to now is        1.9 secs

     Computing kpt #:    30
     total cpu time spent up to now is        1.9 secs

     Computing kpt #:    31
     total cpu time spent up to now is        2.0 secs

     Computing kpt #:    32
     total cpu time spent up to now is        2.0 secs

     Computing kpt #:    33
     total cpu time spent up to now is        2.0 secs

     Computing kpt #:    34
     total cpu time spent up to now is        2.1 secs

     Computing kpt #:    35
     total cpu time spent up to now is        2.1 secs

     Computing kpt #:    36
     total cpu time spent up to now is        2.1 secs

     Computing kpt #:    37
     total cpu time spent up to now is        2.2 secs

     Computing kpt #:    38
     total cpu time spent up to now is        2.2 secs

     Computing kpt #:    39
     total cpu time spent up to now is        2.2 secs

     Computing kpt #:    40
     total cpu time spent up to now is        2.2 secs

     Computing kpt #:    41
     total cpu time spent up to now is        2.3 secs

     Computing kpt #:    42
     total cpu time spent up to now is        2.3 secs

     Computing kpt #:    43
     total cpu time spent up to now is        2.3 secs

     Computing kpt #:    44
     total cpu time spent up to now is        2.4 secs

     Computing kpt #:    45
     total cpu time spent up to now is        2.4 secs

     Computing kpt #:    46
     total cpu time spent up to now is        2.4 secs

     Computing kpt #:    47
     total cpu time spent up to now is        2.5 secs

     Computing kpt #:    48
     total cpu time spent up to now is        2.5 secs

     Computing kpt #:    49
     total cpu time spent up to now is        2.5 secs

     Computing kpt #:    50
     total cpu time spent up to now is        2.5 secs

     Computing kpt #:    51
     total cpu time spent up to now is        2.6 secs

     Computing kpt #:    52
     total cpu time spent up to now is        2.6 secs

     Computing kpt #:    53
     total cpu time spent up to now is        2.6 secs

     Computing kpt #:    54
     total cpu time spent up to now is        2.6 secs

     Computing kpt #:    55
     total cpu time spent up to now is        2.6 secs

     Computing kpt #:    56
     total cpu time spent up to now is        2.7 secs

     Computing kpt #:    57
     total cpu time spent up to now is        2.7 secs

     Computing kpt #:    58
     total cpu time spent up to now is        2.7 secs

     Computing kpt #:    59
     total cpu time spent up to now is        2.7 secs

     Computing kpt #:    60
     total cpu time spent up to now is        2.8 secs

     Computing kpt #:    61
     total cpu time spent up to now is        2.8 secs

     Computing kpt #:    62
     total cpu time spent up to now is        2.8 secs

     Computing kpt #:    63
     total cpu time spent up to now is        2.8 secs

     Computing kpt #:    64
     total cpu time spent up to now is        2.9 secs

     Computing kpt #:    65
     total cpu time spent up to now is        2.9 secs

     Computing kpt #:    66
     total cpu time spent up to now is        2.9 secs

     Computing kpt #:    67
     total cpu time spent up to now is        3.0 secs

     Computing kpt #:    68
     total cpu time spent up to now is        3.0 secs

     Computing kpt #:    69
     total cpu time spent up to now is        3.0 secs

     Computing kpt #:    70
     total cpu time spent up to now is        3.1 secs

     Computing kpt #:    71
     total cpu time spent up to now is        3.1 secs

     Computing kpt #:    72
     total cpu time spent up to now is        3.1 secs

     Computing kpt #:    73
     total cpu time spent up to now is        3.2 secs

     Computing kpt #:    74
     total cpu time spent up to now is        3.2 secs

     Computing kpt #:    75
     total cpu time spent up to now is        3.2 secs

     Computing kpt #:    76
     total cpu time spent up to now is        3.2 secs

     Computing kpt #:    77
     total cpu time spent up to now is        3.2 secs

     Computing kpt #:    78
     total cpu time spent up to now is        3.3 secs

     Computing kpt #:    79
     total cpu time spent up to now is        3.3 secs

     Computing kpt #:    80
     total cpu time spent up to now is        3.3 secs

     Computing kpt #:    81
     total cpu time spent up to now is        3.3 secs

     Computing kpt #:    82
     total cpu time spent up to now is        3.4 secs

     Computing kpt #:    83
     total cpu time spent up to now is        3.4 secs

     Computing kpt #:    84
     total cpu time spent up to now is        3.4 secs

     Computing kpt #:    85
     total cpu time spent up to now is        3.4 secs

     Computing kpt #:    86
     total cpu time spent up to now is        3.5 secs

     Computing kpt #:    87
     total cpu time spent up to now is        3.5 secs

     Computing kpt #:    88
     total cpu time spent up to now is        3.5 secs

     Computing kpt #:    89
     total cpu time spent up to now is        3.6 secs

     Computing kpt #:    90
     total cpu time spent up to now is        3.6 secs

     Computing kpt #:    91
     total cpu time spent up to now is        3.6 secs

     Computing kpt #:    92
     total cpu time spent up to now is        3.6 secs

     Computing kpt #:    93
     total cpu time spent up to now is        3.7 secs

     Computing kpt #:    94
     total cpu time spent up to now is        3.7 secs

     Computing kpt #:    95
     total cpu time spent up to now is        3.7 secs

     Computing kpt #:    96
     total cpu time spent up to now is        3.7 secs

     Computing kpt #:    97
     total cpu time spent up to now is        3.8 secs

     Computing kpt #:    98
     total cpu time spent up to now is        3.8 secs

     Computing kpt #:    99
     total cpu time spent up to now is        3.8 secs

     Computing kpt #:   100
     total cpu time spent up to now is        3.8 secs

     Computing kpt #:   101
     total cpu time spent up to now is        3.9 secs

     Computing kpt #:   102
     total cpu time spent up to now is        3.9 secs

     Computing kpt #:   103
     total cpu time spent up to now is        3.9 secs

     Computing kpt #:   104
     total cpu time spent up to now is        3.9 secs

     Computing kpt #:   105
     total cpu time spent up to now is        3.9 secs

     Computing kpt #:   106
     total cpu time spent up to now is        4.0 secs

     Computing kpt #:   107
     total cpu time spent up to now is        4.0 secs

     Computing kpt #:   108
     total cpu time spent up to now is        4.0 secs

     Computing kpt #:   109
     total cpu time spent up to now is        4.0 secs

     Computing kpt #:   110
     total cpu time spent up to now is        4.1 secs

     Computing kpt #:   111
     total cpu time spent up to now is        4.1 secs

     Computing kpt #:   112
     total cpu time spent up to now is        4.1 secs

     Computing kpt #:   113
     total cpu time spent up to now is        4.1 secs

     Computing kpt #:   114
     total cpu time spent up to now is        4.2 secs

     Computing kpt #:   115
     total cpu time spent up to now is        4.2 secs

     Computing kpt #:   116
     total cpu time spent up to now is        4.2 secs

     Computing kpt #:   117
     total cpu time spent up to now is        4.3 secs

     Computing kpt #:   118
     total cpu time spent up to now is        4.3 secs

     Computing kpt #:   119
     total cpu time spent up to now is        4.3 secs

     Computing kpt #:   120
     total cpu time spent up to now is        4.3 secs

     Computing kpt #:   121
     total cpu time spent up to now is        4.4 secs

     Computing kpt #:   122
     total cpu time spent up to now is        4.4 secs

     Computing kpt #:   123
     total cpu time spent up to now is        4.4 secs

     Computing kpt #:   124
     total cpu time spent up to now is        4.5 secs

     Computing kpt #:   125
     total cpu time spent up to now is        4.5 secs

     Computing kpt #:   126
     total cpu time spent up to now is        4.5 secs

     Computing kpt #:   127
     total cpu time spent up to now is        4.5 secs

     Computing kpt #:   128
     total cpu time spent up to now is        4.6 secs

     Computing kpt #:   129
     total cpu time spent up to now is        4.6 secs

     Computing kpt #:   130
     total cpu time spent up to now is        4.6 secs

     Computing kpt #:   131
     total cpu time spent up to now is        4.7 secs

     Computing kpt #:   132
     total cpu time spent up to now is        4.7 secs

     Computing kpt #:   133
     total cpu time spent up to now is        4.7 secs

     Computing kpt #:   134
     total cpu time spent up to now is        4.7 secs

     Computing kpt #:   135
     total cpu time spent up to now is        4.8 secs

     Computing kpt #:   136
     total cpu time spent up to now is        4.8 secs

     Computing kpt #:   137
     total cpu time spent up to now is        4.8 secs

     Computing kpt #:   138
     total cpu time spent up to now is        4.8 secs

     Computing kpt #:   139
     total cpu time spent up to now is        4.9 secs

     Computing kpt #:   140
     total cpu time spent up to now is        4.9 secs

     Computing kpt #:   141
     total cpu time spent up to now is        4.9 secs

     Computing kpt #:   142
     total cpu time spent up to now is        4.9 secs

     Computing kpt #:   143
     total cpu time spent up to now is        4.9 secs

     Computing kpt #:   144
     total cpu time spent up to now is        5.0 secs

     Computing kpt #:   145
     total cpu time spent up to now is        5.0 secs

     Computing kpt #:   146
     total cpu time spent up to now is        5.0 secs

     Computing kpt #:   147
     total cpu time spent up to now is        5.0 secs

     Computing kpt #:   148
     total cpu time spent up to now is        5.1 secs

     Computing kpt #:   149
     total cpu time spent up to now is        5.1 secs

     Computing kpt #:   150
     total cpu time spent up to now is        5.1 secs

     Computing kpt #:   151
     total cpu time spent up to now is        5.1 secs

     Computing kpt #:   152
     total cpu time spent up to now is        5.2 secs

     Computing kpt #:   153
     total cpu time spent up to now is        5.2 secs

     Computing kpt #:   154
     total cpu time spent up to now is        5.2 secs

     Computing kpt #:   155
     total cpu time spent up to now is        5.3 secs

     Computing kpt #:   156
     total cpu time spent up to now is        5.3 secs

     Computing kpt #:   157
     total cpu time spent up to now is        5.3 secs

     Computing kpt #:   158
     total cpu time spent up to now is        5.3 secs

     Computing kpt #:   159
     total cpu time spent up to now is        5.4 secs

     Computing kpt #:   160
     total cpu time spent up to now is        5.4 secs

     Computing kpt #:   161
     total cpu time spent up to now is        5.4 secs

     Computing kpt #:   162
     total cpu time spent up to now is        5.4 secs

     Computing kpt #:   163
     total cpu time spent up to now is        5.5 secs

     Computing kpt #:   164
     total cpu time spent up to now is        5.5 secs

     Computing kpt #:   165
     total cpu time spent up to now is        5.5 secs

     Computing kpt #:   166
     total cpu time spent up to now is        5.5 secs

     Computing kpt #:   167
     total cpu time spent up to now is        5.6 secs

     Computing kpt #:   168
     total cpu time spent up to now is        5.6 secs

     Computing kpt #:   169
     total cpu time spent up to now is        5.6 secs

     Computing kpt #:   170
     total cpu time spent up to now is        5.6 secs

     Computing kpt #:   171
     total cpu time spent up to now is        5.7 secs

     Computing kpt #:   172
     total cpu time spent up to now is        5.7 secs

     Computing kpt #:   173
     total cpu time spent up to now is        5.7 secs

     Computing kpt #:   174
     total cpu time spent up to now is        5.7 secs

     Computing kpt #:   175
     total cpu time spent up to now is        5.8 secs

     Computing kpt #:   176
     total cpu time spent up to now is        5.8 secs

     Computing kpt #:   177
     total cpu time spent up to now is        5.8 secs

     Computing kpt #:   178
     total cpu time spent up to now is        5.8 secs

     ethr =  4.55E-08,  avg # of iterations =  9.6

     total cpu time spent up to now is        5.8 secs

     End of band structure calculation

 ------ SPIN UP ------------


          k = 0.0000 0.0000 0.0000 (   339 PWs)   bands (ev):

   -75.6059 -41.2810 -41.2810 -41.2810  -6.4695   9.9686   9.9686   9.9686
    10.2377  10.2377  10.4242  10.4242  10.4242  14.4943  29.2945

          k = 0.0154 0.0000 0.0000 (   351 PWs)   bands (ev):

   -75.6143 -41.3423 -41.2968 -41.2968  -6.4581   9.7866   9.8955   9.8955
     9.9586  10.2418  10.4951  10.4951  10.7720  14.5890  28.9384

          k = 0.0309 0.0000 0.0000 (   355 PWs)   bands (ev):

   -75.6175 -41.3709 -41.3022 -41.3022  -6.4112   9.2086   9.7497   9.7497
     9.9289  10.2538  10.6466  10.6466  11.0964  14.9206  28.3196

          k = 0.0463 0.0000 0.0000 (   359 PWs)   bands (ev):

   -75.6205 -41.3880 -41.3135 -41.3135  -6.3368   8.6402   9.5911   9.5911
     9.8812  10.2731  10.8047  10.8047  11.3363  15.4221  27.7047

          k = 0.0618 0.0000 0.0000 (   371 PWs)   bands (ev):

   -75.6294 -41.3945 -41.3638 -41.3638  -6.2435   8.1171   9.4479   9.4479
     9.8175  10.2992  10.9549  10.9549  11.5119  16.0134  27.1396

          k = 0.0772 0.0000 0.0000 (   367 PWs)   bands (ev):

   -75.6257 -41.3841 -41.3551 -41.3551  -6.1276   7.6554   9.3435   9.3435
     9.7412  10.3307  11.1023  11.1023  11.6363  16.7069  26.6366

          k = 0.0927 0.0000 0.0000 (   367 PWs)   bands (ev):

   -75.6247 -41.3860 -41.3573 -41.3573  -6.0031   7.2679   9.2575   9.2575
     9.6556  10.3665  11.2095  11.2095  11.7203  17.3656  26.1932

          k = 0.1081 0.0000 0.0000 (   367 PWs)   bands (ev):

   -75.6234 -41.3859 -41.3583 -41.3583  -5.8765   6.9703   9.2004   9.2004
     9.5647  10.4050  11.2808  11.2808  11.7687  17.9899  25.8088

          k = 0.1235 0.0000 0.0000 (   371 PWs)   bands (ev):

   -75.6240 -41.4005 -41.3712 -41.3712  -5.7535   6.7533   9.1571   9.1571
     9.4725  10.4445  11.3048  11.3048  11.7717  18.6210  25.4793

          k = 0.1390 0.0000 0.0000 (   371 PWs)   bands (ev):

   -75.6229 -41.4039 -41.3724 -41.3724  -5.6442   6.6548   9.1531   9.1531
     9.3832  10.4833  11.3012  11.3012  11.7456  19.0929  25.2032

          k = 0.1544 0.0000 0.0000 (   379 PWs)   bands (ev):

   -75.6280 -41.4708 -41.3803 -41.3803  -5.5510   6.5979   9.1717   9.1717
     9.3005  10.5196  11.2663  11.2663  11.6654  19.3871  24.9764

          k = 0.1699 0.0000 0.0000 (   375 PWs)   bands (ev):

   -75.6239 -41.4499 -41.3740 -41.3740  -5.4729   6.7005   9.2103   9.2103
     9.2278  10.5520  11.2098  11.2098  11.5592  19.6367  24.6287

          k = 0.1853 0.0000 0.0000 (   383 PWs)   bands (ev):

   -75.6302 -41.4739 -41.4039 -41.4039  -5.4182   6.8118   9.1681   9.2066
     9.2066  10.5787  11.1336  11.1336  11.4147  19.7701  24.0476

          k = 0.2008 0.0000 0.0000 (   379 PWs)   bands (ev):

   -75.6265 -41.4410 -41.4030 -41.4030  -5.3802   6.9435   9.1237   9.2511
     9.2511  10.5988  11.0714  11.0714  11.2692  19.8626  23.8247

          k = 0.2162 0.0000 0.0000 (   388 PWs)   bands (ev):

   -75.6339 -41.4817 -41.4302 -41.4302  -5.3593   7.0054   9.0964   9.2802
     9.2802  10.6112  11.0263  11.0263  11.1564  19.8178  23.6316

          k = 0.2316 0.0000 0.0000 (   388 PWs)   bands (ev):

   -75.6339 -41.4837 -41.4309 -41.4309  -5.3524   7.0432   9.0871   9.2918
     9.2918  10.6154  11.0099  11.0099  11.1146  19.8182  23.5830

          k = 0.2316 0.0000 0.0165 (   380 PWs)   bands (ev):

   -75.6272 -41.4699 -41.4129 -41.3825  -5.3442   7.0756   8.8694   9.1142
     9.5158  10.7426  11.0100  11.0139  11.1554  19.9275  23.5781

          k = 0.2316 0.0000 0.0331 (   372 PWs)   bands (ev):

   -75.6212 -41.4493 -41.3927 -41.3534  -5.3239   7.1175   8.5899   8.7643
     9.8151  10.9049  11.0101  11.0241  11.3463  20.2108  23.5858

          k = 0.2316 0.0000 0.0496 (   376 PWs)   bands (ev):

   -75.6246 -41.4493 -41.4058 -41.3760  -5.2961   7.1497   8.3074   8.3076
    10.0885  10.9575  11.0102  11.0337  11.6248  20.5695  23.5645

          k = 0.2316 0.0000 0.0662 (   378 PWs)   bands (ev):

   -75.6267 -41.4499 -41.4129 -41.3910  -5.2645   7.1954   7.9350   8.0621
    10.3473  10.9778  11.0103  11.0339  11.8908  21.0009  23.5492

          k = 0.2316 0.0000 0.0827 (   386 PWs)   bands (ev):

   -75.6338 -41.4499 -41.4459 -41.4409  -5.2369   7.2635   7.6328   7.8023
    10.5494  10.9869  11.0104  11.0140  12.0805  21.4280  23.5453

          k = 0.2316-0.0000 0.0993 (   382 PWs)   bands (ev):

   -75.6308 -41.4433 -41.4374 -41.4212  -5.2173   7.3629   7.4537   7.6499
    10.7448  10.9647  10.9919  11.0105  12.2018  21.8218  23.5831

          k = 0.2316-0.0000 0.1158 (   380 PWs)   bands (ev):

   -75.6293 -41.4280 -41.4280 -41.4273  -5.2100   7.3968   7.4910   7.4910
    10.8767  10.8767  10.9934  11.0106  12.2447  21.9949  23.6419

          k = 0.2201 0.0000 0.1274 (   383 PWs)   bands (ev):

   -75.6317 -41.4473 -41.4354 -41.4287  -5.2130   7.3404   7.4009   7.6259
    10.7221  10.9130  11.0437  11.0753  12.2489  21.9295  23.5960

          k = 0.2085 0.0000 0.1390 (   380 PWs)   bands (ev):

   -75.6294 -41.4431 -41.4403 -41.3999  -5.2197   7.2739   7.3335   7.8062
    10.5448  10.9046  11.1076  11.2136  12.2673  21.7975  23.5541

          k = 0.1969 0.0000 0.1506 (   380 PWs)   bands (ev):

   -75.6294 -41.4441 -41.4419 -41.3958  -5.2272   7.2211   7.2843   7.9389
    10.3817  10.8919  11.1599  11.3456  12.2849  21.6547  23.4311

          k = 0.1853 0.0000 0.1622 (   380 PWs)   bands (ev):

   -75.6291 -41.4482 -41.4415 -41.3894  -5.2327   7.1863   7.2440   8.0478
    10.2664  10.8832  11.1908  11.4401  12.3145  21.5372  23.3407

          k = 0.1737 0.0000 0.1737 (   377 PWs)   bands (ev):

   -75.6265 -41.4410 -41.4386 -41.3705  -5.2346   7.1760   7.2451   8.0945
    10.2247  10.8803  11.2036  11.4752  12.3329  21.5227  23.2991

          k = 0.1622 0.0000 0.1622 (   383 PWs)   bands (ev):

   -75.6319 -41.4647 -41.4504 -41.3931  -5.2152   6.8136   7.2972   7.8756
    10.3953  10.8250  11.2602  11.5200  12.7028  22.0003  22.7914

          k = 0.1506 0.0000 0.1506 (   383 PWs)   bands (ev):

   -75.6322 -41.4667 -41.4452 -41.3940  -5.2134   6.5240   7.3969   7.7091
    10.5431  10.7614  11.3156  11.5457  13.0244  21.9923  22.8087

          k = 0.1390 0.0000 0.1390 (   385 PWs)   bands (ev):

   -75.6339 -41.4844 -41.4387 -41.3967  -5.2369   6.3239   7.5178   7.5944
    10.6552  10.6906  11.3600  11.5545  13.2763  21.3712  23.3876

          k = 0.1274 0.0000 0.1274 (   379 PWs)   bands (ev):

   -75.6291 -41.4521 -41.4147 -41.3816  -5.2898   6.2197   7.5431   7.6605
    10.6139  10.7237  11.3879  11.5439  13.4578  20.7367  23.8646

          k = 0.1158 0.0000 0.1158 (   379 PWs)   bands (ev):

   -75.6297 -41.4487 -41.4107 -41.3817  -5.3723   6.2287   7.5386   7.8249
    10.5331  10.7468  11.3952  11.5161  13.5316  20.0854  24.0576

          k = 0.1042 0.0000 0.1042 (   373 PWs)   bands (ev):

   -75.6253 -41.4310 -41.3824 -41.3624  -5.4823   6.3604   7.5973   8.0428
    10.4501  10.7295  11.3997  11.4709  13.5177  19.4349  24.3255

          k = 0.0927 0.0000 0.0927 (   371 PWs)   bands (ev):

   -75.6248 -41.4126 -41.3828 -41.3579  -5.6224   6.5674   7.7086   8.2427
    10.3672  10.6794  11.3557  11.3867  13.4008  18.7802  24.6647

          k = 0.0811 0.0000 0.0811 (   371 PWs)   bands (ev):

   -75.6270 -41.4210 -41.3720 -41.3575  -5.7728   6.9035   7.8725   8.4691
    10.2866  10.6040  11.2950  11.2979  13.1862  18.0385  25.0843

          k = 0.0695 0.0000 0.0695 (   371 PWs)   bands (ev):

   -75.6282 -41.4189 -41.3699 -41.3571  -5.9257   7.3057   8.0898   8.6975
    10.2107  10.5106  11.1902  11.1995  12.8955  17.3753  25.5757

          k = 0.0579 0.0000 0.0579 (   367 PWs)   bands (ev):

   -75.6262 -41.3840 -41.3644 -41.3545  -6.0734   7.8057   8.3584   8.9381
    10.1419  10.4071  11.0836  11.0900  12.5410  16.7247  26.1412

          k = 0.0463 0.0000 0.0463 (   367 PWs)   bands (ev):

   -75.6270 -41.3810 -41.3608 -41.3524  -6.2076   8.3195   8.6734   9.1805
    10.0823  10.3030  10.9443  10.9779  12.1364  16.0773  26.7713

          k = 0.0347 0.0000 0.0347 (   365 PWs)   bands (ev):

   -75.6255 -41.3831 -41.3442 -41.3398  -6.3209   8.8548   9.0347   9.4349
    10.0338  10.2093  10.8076  10.8645  11.7021  15.4545  27.4613

          k = 0.0232 0.0000 0.0232 (   359 PWs)   bands (ev):

   -75.6207 -41.3651 -41.3300 -41.3135  -6.4052   9.3814   9.4380   9.6715
     9.9979  10.1387  10.6567  10.7385  11.2535  14.9467  28.1895

          k = 0.0116 0.0000 0.0116 (   353 PWs)   bands (ev):

   -75.6158 -41.3380 -41.3147 -41.2967  -6.4569   9.8205   9.8643   9.8711
     9.9760  10.1216  10.5015  10.5770  10.7943  14.5992  28.8950

          k = 0.0000 0.0000 0.0000 (   339 PWs)   bands (ev):

   -75.6059 -41.2810 -41.2810 -41.2810  -6.4695   9.9686   9.9686   9.9686
    10.2377  10.2377  10.4242  10.4242  10.4242  14.4943  29.2945

          k = 0.0089 0.0089 0.0089 (   354 PWs)   bands (ev):

   -75.6165 -41.3392 -41.3085 -41.3085  -6.4593   9.8393   9.8878   9.8878
    10.0427  10.0427  10.4278  10.7019  10.7019  14.5829  28.9284

          k = 0.0178 0.0178 0.0178 (   363 PWs)   bands (ev):

   -75.6244 -41.3810 -41.3292 -41.3292  -6.4132   9.4852   9.5559   9.5559
    10.0444  10.0444  10.4458  11.0579  11.0579  14.8904  28.2480

          k = 0.0267 0.0267 0.0267 (   362 PWs)   bands (ev):

   -75.6239 -41.3784 -41.3324 -41.3324  -6.3361   9.0407   9.2179   9.2179
    10.0908  10.0908  10.5125  11.4247  11.4247  15.3556  27.5197

          k = 0.0356 0.0356 0.0356 (   362 PWs)   bands (ev):

   -75.6236 -41.3844 -41.3347 -41.3347  -6.2334   8.5345   8.8966   8.8966
    10.1558  10.1558  10.5836  11.7822  11.7822  15.8855  26.7934

          k = 0.0445 0.0445 0.0445 (   362 PWs)   bands (ev):

   -75.6229 -41.3886 -41.3362 -41.3362  -6.1092   8.0093   8.5982   8.5982
    10.2343  10.2343  10.6677  12.1243  12.1243  16.4463  26.0870

          k = 0.0535 0.0535 0.0535 (   362 PWs)   bands (ev):

   -75.6218 -41.3907 -41.3367 -41.3367  -5.9690   7.4913   8.3266   8.3266
    10.3218  10.3218  10.7654  12.4452  12.4452  17.0067  25.4140

          k = 0.0624 0.0624 0.0624 (   368 PWs)   bands (ev):

   -75.6251 -41.4435 -41.3407 -41.3407  -5.8206   6.9418   8.0824   8.0824
    10.4133  10.4133  10.8591  12.7359  12.7359  17.5079  24.7689

          k = 0.0713 0.0713 0.0713 (   365 PWs)   bands (ev):

   -75.6214 -41.4418 -41.3304 -41.3304  -5.6699   6.4931   7.8792   7.8792
    10.5035  10.5035  10.9748  13.0064  13.0064  18.0030  24.2169

          k = 0.0802 0.0802 0.0802 (   362 PWs)   bands (ev):

   -75.6176 -41.4232 -41.3275 -41.3275  -5.5201   6.1172   7.7065   7.7065
    10.5869  10.5869  11.0983  13.2322  13.2322  18.4748  23.7098

          k = 0.0891 0.0891 0.0891 (   368 PWs)   bands (ev):

   -75.6216 -41.4489 -41.3434 -41.3434  -5.3975   5.7703   7.5601   7.5601
    10.6581  10.6581  11.1967  13.3988  13.3988  18.7744  23.3388

          k = 0.0980 0.0980 0.0980 (   374 PWs)   bands (ev):

   -75.6260 -41.4973 -41.3524 -41.3524  -5.3028   5.5315   7.4579   7.4579
    10.7126  10.7126  11.2812  13.5260  13.5260  18.9818  22.9703

          k = 0.1069 0.1069 0.1069 (   374 PWs)   bands (ev):

   -75.6258 -41.5022 -41.3521 -41.3521  -5.2415   5.3845   7.3983   7.3983
    10.7470  10.7470  11.3376  13.6076  13.6076  19.1042  22.8172

          k = 0.1158 0.1158 0.1158 (   368 PWs)   bands (ev):

   -75.6205 -41.4786 -41.3359 -41.3359  -5.2188   5.3351   7.3858   7.3858
    10.7587  10.7587  11.3577  13.6484  13.6484  19.1846  22.8207

          k = 0.1287 0.1094 0.1094 (   376 PWs)   bands (ev):

   -75.6275 -41.4955 -41.3799 -41.3504  -5.2198   5.3630   7.3709   7.3910
    10.7487  10.7593  11.3507  13.5523  13.6183  19.2663  22.7553

          k = 0.1416 0.1030 0.1030 (   378 PWs)   bands (ev):

   -75.6290 -41.4949 -41.3821 -41.3678  -5.2192   5.4520   7.3793   7.4182
    10.7203  10.7616  11.3326  13.3639  13.5491  19.5461  22.7066

          k = 0.1544 0.0965 0.0965 (   381 PWs)   bands (ev):

   -75.6312 -41.4915 -41.4061 -41.3769  -5.2179   5.6061   7.3852   7.4681
    10.6761  10.7661  11.3072  13.0823  13.4452  19.9611  22.6239

          k = 0.1673 0.0901 0.0901 (   375 PWs)   bands (ev):

   -75.6261 -41.4587 -41.3920 -41.3682  -5.2146   5.8126   7.4056   7.5428
    10.6205  10.7739  11.2790  12.7661  13.3168  20.5159  22.5816

          k = 0.1802 0.0837 0.0837 (   376 PWs)   bands (ev):

   -75.6266 -41.4580 -41.4009 -41.3718  -5.2144   6.0523   7.4022   7.6307
    10.5564  10.7859  11.2489  12.4156  13.1550  21.0813  22.4652

          k = 0.1930 0.0772 0.0772 (   380 PWs)   bands (ev):

   -75.6295 -41.4612 -41.4183 -41.3909  -5.2151   6.3196   7.3901   7.7261
    10.4851  10.8029  11.2264  12.0831  12.9619  21.6321  22.3320

          k = 0.2059 0.0708 0.0708 (   383 PWs)   bands (ev):

   -75.6316 -41.4576 -41.4528 -41.3934  -5.2178   6.6081   7.3452   7.8389
    10.4064  10.8252  11.2167  11.7872  12.7599  21.9060  22.4291

          k = 0.2188 0.0643 0.0643 (   378 PWs)   bands (ev):

   -75.6274 -41.4471 -41.4419 -41.3699  -5.2234   6.9037   7.3049   7.9655
    10.3199  10.8518  11.2186  11.5748  12.5513  21.7809  22.8924

          k = 0.2316 0.0579 0.0579 (   377 PWs)   bands (ev):

   -75.6265 -41.4410 -41.4386 -41.3705  -5.2346   7.1760   7.2451   8.0945
    10.2247  10.8803  11.2036  11.4752  12.3329  21.5227  23.2991

          k = 0.2316 0.0463 0.0695 (   380 PWs)   bands (ev):

   -75.6291 -41.4482 -41.4415 -41.3894  -5.2327   7.1863   7.2440   8.0478
    10.2664  10.8832  11.1908  11.4401  12.3145  21.5372  23.3407

          k = 0.2316 0.0347 0.0811 (   380 PWs)   bands (ev):

   -75.6294 -41.4441 -41.4419 -41.3958  -5.2272   7.2211   7.2843   7.9389
    10.3817  10.8919  11.1599  11.3456  12.2849  21.6547  23.4311

          k = 0.2316 0.0232 0.0927 (   380 PWs)   bands (ev):

   -75.6294 -41.4431 -41.4403 -41.3999  -5.2197   7.2739   7.3335   7.8062
    10.5448  10.9046  11.1076  11.2136  12.2673  21.7975  23.5541

          k = 0.2316 0.0116 0.1042 (   383 PWs)   bands (ev):

   -75.6317 -41.4473 -41.4354 -41.4287  -5.2130   7.3404   7.4009   7.6259
    10.7221  10.9130  11.0437  11.0753  12.2489  21.9295  23.5960

          k = 0.2316-0.0000 0.1158 (   380 PWs)   bands (ev):

   -75.6293 -41.4280 -41.4280 -41.4273  -5.2100   7.3968   7.4910   7.4910
    10.8767  10.8767  10.9934  11.0106  12.2447  21.9949  23.6419

          k = 0.2201 0.0116 0.1158 (   384 PWs)   bands (ev):

   -75.6325 -41.4521 -41.4390 -41.4302  -5.2102   7.2281   7.4774   7.5832
    10.7664  10.8356  11.0522  11.1483  12.2916  21.9994  23.4668

          k = 0.2085 0.0232 0.1158 (   378 PWs)   bands (ev):

   -75.6273 -41.4361 -41.4180 -41.4030  -5.2100   6.9783   7.4804   7.6678
    10.6647  10.7856  11.1150  11.3983  12.4345  22.0936  23.0775

          k = 0.1969 0.0347 0.1158 (   380 PWs)   bands (ev):

   -75.6291 -41.4583 -41.4114 -41.4057  -5.2112   6.6876   7.4661   7.6803
    10.6047  10.7567  11.1622  11.6897  12.6321  22.1634  22.5015

          k = 0.1853 0.0463 0.1158 (   380 PWs)   bands (ev):

   -75.6298 -41.4669 -41.4047 -41.4046  -5.2127   6.3846   7.4543   7.6518
    10.5853  10.7495  11.2005  12.0172  12.8535  21.8624  22.2871

          k = 0.1737 0.0579 0.1158 (   378 PWs)   bands (ev):

   -75.6287 -41.4693 -41.3995 -41.3862  -5.2137   6.1025   7.4307   7.5958
    10.5983  10.7535  11.2365  12.3609  13.0692  21.2244  22.4136

          k = 0.1622 0.0695 0.1158 (   380 PWs)   bands (ev):

   -75.6306 -41.4820 -41.3957 -41.3932  -5.2153   5.8472   7.4145   7.5272
    10.6328  10.7587  11.2718  12.7180  13.2584  20.5859  22.5096

          k = 0.1506 0.0811 0.1158 (   378 PWs)   bands (ev):

   -75.6291 -41.4816 -41.3863 -41.3793  -5.2158   5.6367   7.3969   7.4675
    10.6770  10.7612  11.3063  13.0568  13.4194  20.0381  22.6115

          k = 0.1390 0.0927 0.1158 (   380 PWs)   bands (ev):

   -75.6309 -41.5036 -41.3814 -41.3813  -5.2196   5.4615   7.3806   7.4144
    10.7186  10.7606  11.3306  13.3454  13.5313  19.5661  22.6801

          k = 0.1274 0.1042 0.1158 (   380 PWs)   bands (ev):

   -75.6309 -41.5042 -41.3800 -41.3790  -5.2203   5.3639   7.3709   7.3806
    10.7480  10.7592  11.3497  13.5465  13.5994  19.2646  22.7292

          k = 0.1158 0.1158 0.1158 (   368 PWs)   bands (ev):

   -75.6205 -41.4786 -41.3359 -41.3359  -5.2188   5.3351   7.3858   7.3858
    10.7587  10.7587  11.3577  13.6484  13.6484  19.1846  22.8207

          k = 0.1223 0.1030 0.1223 (   376 PWs)   bands (ev):

   -75.6275 -41.4955 -41.3799 -41.3504  -5.2198   5.3630   7.3709   7.3910
    10.7487  10.7593  11.3507  13.5523  13.6183  19.2663  22.7553

          k = 0.1287 0.0901 0.1287 (   378 PWs)   bands (ev):

   -75.6290 -41.4949 -41.3821 -41.3678  -5.2192   5.4520   7.3793   7.4182
    10.7203  10.7616  11.3326  13.3639  13.5491  19.5461  22.7066

          k = 0.1351 0.0772 0.1351 (   381 PWs)   bands (ev):

   -75.6312 -41.4915 -41.4061 -41.3769  -5.2179   5.6061   7.3852   7.4681
    10.6761  10.7661  11.3072  13.0823  13.4452  19.9611  22.6239

          k = 0.1416 0.0643 0.1416 (   375 PWs)   bands (ev):

   -75.6261 -41.4587 -41.3920 -41.3682  -5.2146   5.8126   7.4056   7.5428
    10.6205  10.7739  11.2790  12.7661  13.3168  20.5159  22.5816

          k = 0.1480 0.0515 0.1480 (   376 PWs)   bands (ev):

   -75.6266 -41.4580 -41.4009 -41.3718  -5.2144   6.0523   7.4022   7.6307
    10.5564  10.7859  11.2489  12.4156  13.1550  21.0813  22.4652

          k = 0.1544 0.0386 0.1544 (   380 PWs)   bands (ev):

   -75.6295 -41.4612 -41.4183 -41.3909  -5.2151   6.3196   7.3901   7.7261
    10.4851  10.8029  11.2264  12.0831  12.9619  21.6321  22.3320

          k = 0.1609 0.0257 0.1609 (   383 PWs)   bands (ev):

   -75.6316 -41.4576 -41.4528 -41.3934  -5.2178   6.6081   7.3452   7.8389
    10.4064  10.8252  11.2167  11.7872  12.7599  21.9060  22.4291

          k = 0.1673 0.0129 0.1673 (   378 PWs)   bands (ev):

   -75.6274 -41.4471 -41.4419 -41.3699  -5.2234   6.9037   7.3049   7.9655
    10.3199  10.8518  11.2186  11.5748  12.5513  21.7809  22.8924

          k = 0.1737 0.0000 0.1737 (   377 PWs)   bands (ev):

   -75.6265 -41.4410 -41.4386 -41.3705  -5.2346   7.1760   7.2451   8.0945
    10.2247  10.8803  11.2036  11.4752  12.3329  21.5227  23.2991

 ------ SPIN DOWN ----------


          k = 0.0000 0.0000 0.0000 (   339 PWs)   bands (ev):

   -71.8601 -37.6616 -37.6616 -37.6616  -5.8574  11.0530  11.0530  11.0530
    12.8770  12.8770  12.8770  13.6289  13.6289  15.3145  29.6408

          k = 0.0154 0.0000 0.0000 (   351 PWs)   bands (ev):

   -71.8680 -37.7173 -37.6759 -37.6759  -5.8456  10.8427  11.0080  11.0080
    12.8620  12.9245  12.9245  13.6342  13.7395  15.4112  29.4195

          k = 0.0309 0.0000 0.0000 (   355 PWs)   bands (ev):

   -71.8710 -37.7440 -37.6810 -37.6810  -5.7983  10.3707  10.8998  10.8998
    12.8181  13.0527  13.0527  13.6501  13.9502  15.7626  28.9573

          k = 0.0463 0.0000 0.0000 (   359 PWs)   bands (ev):

   -71.8737 -37.7602 -37.6916 -37.6916  -5.7229   9.8237  10.7451  10.7451
    12.7476  13.2298  13.2298  13.6759  14.1361  16.3147  28.4577

          k = 0.0618 0.0000 0.0000 (   371 PWs)   bands (ev):

   -71.8818 -37.7672 -37.7375 -37.7375  -5.6282   9.2897  10.5861  10.5861
    12.6541  13.4251  13.4251  13.7102  14.2852  16.9680  27.9878

          k = 0.0772 0.0000 0.0000 (   367 PWs)   bands (ev):

   -71.8779 -37.7593 -37.7303 -37.7303  -5.5107   8.8008  10.4629  10.4629
    12.5426  13.6253  13.6253  13.7522  14.4129  17.7107  27.5685

          k = 0.0927 0.0000 0.0000 (   367 PWs)   bands (ev):

   -71.8768 -37.7625 -37.7329 -37.7329  -5.3837   8.3762  10.3394  10.3394
    12.4185  13.7999  13.8069  13.8069  14.5262  18.4065  27.2018

          k = 0.1081 0.0000 0.0000 (   367 PWs)   bands (ev):

   -71.8754 -37.7639 -37.7345 -37.7345  -5.2539   8.0347  10.2360  10.2360
    12.2878  13.8513  13.9615  13.9615  14.6253  19.0538  26.8877

          k = 0.1235 0.0000 0.0000 (   371 PWs)   bands (ev):

   -71.8761 -37.7790 -37.7467 -37.7467  -5.1271   7.7660  10.1330  10.1330
    12.1563  13.9041  14.0810  14.0810  14.7012  19.6894  26.6223

          k = 0.1390 0.0000 0.0000 (   371 PWs)   bands (ev):

   -71.8749 -37.7836 -37.7484 -37.7484  -5.0133   7.6111  10.0700  10.0700
    12.0299  13.9561  14.1674  14.1674  14.7561  20.1651  26.4029

          k = 0.1544 0.0000 0.0000 (   379 PWs)   bands (ev):

   -71.8795 -37.8459 -37.7559 -37.7559  -4.9152   7.4828  10.0253  10.0253
    11.9136  14.0050  14.2215  14.2215  14.7756  20.4685  26.1453

          k = 0.1699 0.0000 0.0000 (   375 PWs)   bands (ev):

   -71.8754 -37.8282 -37.7509 -37.7509  -4.8320   7.5149   9.9994   9.9994
    11.8121  14.0485  14.2498  14.2498  14.7637  20.7227  25.4271

          k = 0.1853 0.0000 0.0000 (   383 PWs)   bands (ev):

   -71.8812 -37.8505 -37.7784 -37.7784  -4.7728   7.5493   9.9287   9.9287
    11.7290  14.0846  14.2575  14.2575  14.7149  20.8714  24.8001

          k = 0.2008 0.0000 0.0000 (   379 PWs)   bands (ev):

   -71.8778 -37.8216 -37.7780 -37.7780  -4.7311   7.6083   9.9213   9.9213
    11.6676  14.1117  14.2572  14.2572  14.6540  20.9809  24.5278

          k = 0.2162 0.0000 0.0000 (   388 PWs)   bands (ev):

   -71.8849 -37.8586 -37.8028 -37.8028  -4.7079   7.6157   9.9148   9.9148
    11.6299  14.1285  14.2536  14.2536  14.6020  20.9535  24.3061

          k = 0.2316 0.0000 0.0000 (   388 PWs)   bands (ev):

   -71.8849 -37.8605 -37.8035 -37.8035  -4.7002   7.6332   9.9135   9.9135
    11.6172  14.1342  14.2519  14.2519  14.5819  20.9592  24.2471

          k = 0.2316 0.0000 0.0165 (   380 PWs)   bands (ev):

   -71.8785 -37.8481 -37.7874 -37.7597  -4.6922   7.6709   9.8238   9.8332
    11.7232  14.1932  14.2444  14.2520  14.6005  21.0622  24.2455

          k = 0.2316 0.0000 0.0331 (   372 PWs)   bands (ev):

   -71.8727 -37.8296 -37.7695 -37.7334  -4.6727   7.7300   9.6088   9.6512
    11.9878  14.2203  14.2521  14.3180  14.6782  21.3323  24.2622

          k = 0.2316 0.0000 0.0496 (   376 PWs)   bands (ev):

   -71.8760 -37.8289 -37.7817 -37.7540  -4.6460   7.7903   9.3076   9.3143
    12.3222  14.1736  14.2523  14.4047  14.8330  21.6816  24.2596

          k = 0.2316 0.0000 0.0662 (   378 PWs)   bands (ev):

   -71.8779 -37.8285 -37.7876 -37.7691  -4.6158   7.8728   9.0105   9.0360
    12.6776  14.0960  14.2526  14.4463  15.0222  22.1127  24.2734

          k = 0.2316 0.0000 0.0827 (   386 PWs)   bands (ev):

   -71.8848 -37.8275 -37.8172 -37.8153  -4.5894   7.9843   8.7193   8.7493
    13.0131  13.9786  14.2528  14.4664  15.1746  22.5502  24.3111

          k = 0.2316-0.0000 0.0993 (   382 PWs)   bands (ev):

   -71.8819 -37.8153 -37.8151 -37.7985  -4.5706   8.1320   8.5234   8.5940
    13.3325  13.8146  14.2529  14.4768  15.2744  22.9565  24.4030

          k = 0.2316-0.0000 0.1158 (   380 PWs)   bands (ev):

   -71.8805 -37.8058 -37.8058 -37.8006  -4.5636   8.3116   8.3116   8.5460
    13.5990  13.5990  14.2530  14.4801  15.3091  23.1359  24.5294

          k = 0.2201 0.0000 0.1274 (   383 PWs)   bands (ev):

   -71.8827 -37.8221 -37.8131 -37.8021  -4.5668   8.1877   8.3085   8.6699
    13.4146  13.7560  14.2523  14.5017  15.3082  23.0658  24.4345

          k = 0.2085 0.0000 0.1390 (   380 PWs)   bands (ev):

   -71.8806 -37.8181 -37.8173 -37.7765  -4.5737   8.0932   8.2378   8.9131
    13.2272  13.8869  14.2491  14.5653  15.3069  22.9201  24.3617

          k = 0.1969 0.0000 0.1506 (   380 PWs)   bands (ev):

   -71.8806 -37.8200 -37.8186 -37.7717  -4.5814   8.0240   8.1714   9.1099
    13.0554  13.9882  14.2421  14.6511  15.2950  22.7605  24.3165

          k = 0.1853 0.0000 0.1622 (   380 PWs)   bands (ev):

   -71.8803 -37.8259 -37.8168 -37.7648  -4.5871   7.9710   8.1283   9.2675
    12.9339  14.0562  14.2313  14.7275  15.2874  22.6292  24.2915

          k = 0.1737 0.0000 0.1737 (   377 PWs)   bands (ev):

   -71.8778 -37.8175 -37.8164 -37.7475  -4.5891   7.9686   8.1163   9.3340
    12.8898  14.0820  14.2260  14.7594  15.2854  22.6080  24.2915

          k = 0.1622 0.0000 0.1622 (   383 PWs)   bands (ev):

   -71.8829 -37.8390 -37.8269 -37.7673  -4.5726   7.7430   8.0710   9.1802
    13.1953  14.0093  14.1990  14.7617  15.6081  23.0974  23.7307

          k = 0.1506 0.0000 0.1506 (   383 PWs)   bands (ev):

   -71.8832 -37.8418 -37.8211 -37.7675  -4.5741   7.4463   8.2260   9.0643
    13.4741  13.9254  14.1620  14.7415  15.8943  22.9818  23.7751

          k = 0.1390 0.0000 0.1390 (   385 PWs)   bands (ev):

   -71.8848 -37.8582 -37.8139 -37.7695  -4.6011   7.2428   8.4052   8.9879
    13.7056  13.8317  14.1103  14.7013  16.1182  22.2849  24.3626

          k = 0.1274 0.0000 0.1274 (   379 PWs)   bands (ev):

   -71.8804 -37.8292 -37.7911 -37.7551  -4.6576   7.1384   8.6074   8.9707
    13.7302  13.8746  14.0430  14.6427  16.2675  21.6102  24.7301

          k = 0.1158 0.0000 0.1158 (   379 PWs)   bands (ev):

   -71.8811 -37.8259 -37.7863 -37.7547  -4.7436   7.1505   8.8306   8.9887
    13.6232  13.9582  13.9683  14.5701  16.3124  20.9402  24.9537

          k = 0.1042 0.0000 0.1042 (   373 PWs)   bands (ev):

   -71.8770 -37.8094 -37.7593 -37.7367  -4.8567   7.2898   9.0673   9.1157
    13.5133  13.8658  13.9866  14.4846  16.2633  20.2837  25.2452

          k = 0.0927 0.0000 0.0927 (   371 PWs)   bands (ev):

   -71.8769 -37.7918 -37.7584 -37.7322  -4.9997   7.5040   9.1922   9.3680
    13.4034  13.7493  13.9393  14.3734  16.1089  19.6284  25.5983

          k = 0.0811 0.0000 0.0811 (   371 PWs)   bands (ev):

   -71.8789 -37.7977 -37.7477 -37.7316  -5.1523   7.8537   9.3611   9.6457
    13.2967  13.6240  13.8376  14.2592  15.8610  18.8955  26.0200

          k = 0.0695 0.0000 0.0695 (   371 PWs)   bands (ev):

   -71.8802 -37.7941 -37.7449 -37.7310  -5.3074   8.2705   9.5769   9.9102
    13.1963  13.4881  13.6949  14.1415  15.5406  18.2337  26.4994

          k = 0.0579 0.0000 0.0579 (   367 PWs)   bands (ev):

   -71.8785 -37.7608 -37.7391 -37.7284  -5.4568   8.7940   9.8336  10.1754
    13.1054  13.3497  13.5269  14.0351  15.1676  17.5808  27.0356

          k = 0.0463 0.0000 0.0463 (   367 PWs)   bands (ev):

   -71.8794 -37.7562 -37.7351 -37.7263  -5.5925   9.3287  10.1191  10.4224
    13.0267  13.2131  13.3517  13.9338  14.7650  16.9240  27.6167

          k = 0.0347 0.0000 0.0347 (   365 PWs)   bands (ev):

   -71.8782 -37.7566 -37.7190 -37.7153  -5.7069   9.8853  10.4238  10.6738
    12.9628  13.0879  13.1862  13.8396  14.3644  16.2889  28.2321

          k = 0.0232 0.0000 0.0232 (   359 PWs)   bands (ev):

   -71.8739 -37.7388 -37.7060 -37.6913  -5.7921  10.4278  10.7229  10.8758
    12.9156  12.9807  13.0413  13.7476  14.0028  15.7702  28.8498

          k = 0.0116 0.0000 0.0116 (   353 PWs)   bands (ev):

   -71.8692 -37.7134 -37.6921 -37.6758  -5.8443  10.8643  10.9496  11.0027
    12.8867  12.9047  12.9267  13.6656  13.7324  15.4200  29.3901

          k = 0.0000 0.0000 0.0000 (   339 PWs)   bands (ev):

   -71.8601 -37.6616 -37.6616 -37.6616  -5.8574  11.0530  11.0530  11.0530
    12.8770  12.8770  12.8770  13.6289  13.6289  15.3145  29.6408

          k = 0.0089 0.0089 0.0089 (   354 PWs)   bands (ev):

   -71.8699 -37.7144 -37.6865 -37.6865  -5.8467  10.8936  10.9751  10.9751
    12.8980  12.8980  12.9117  13.6931  13.6931  15.4034  29.4134

          k = 0.0178 0.0178 0.0178 (   363 PWs)   bands (ev):

   -71.8770 -37.7530 -37.7052 -37.7052  -5.8001  10.4838  10.7860  10.7860
    12.9528  12.9528  12.9879  13.8697  13.8697  15.7075  28.8979

          k = 0.0267 0.0267 0.0267 (   362 PWs)   bands (ev):

   -71.8764 -37.7522 -37.7083 -37.7083  -5.7223  10.0137  10.5539  10.5539
    13.0302  13.0302  13.0782  14.1262  14.1262  16.1694  28.2792

          k = 0.0356 0.0356 0.0356 (   362 PWs)   bands (ev):

   -71.8760 -37.7593 -37.7106 -37.7106  -5.6187   9.4788  10.2951  10.2951
    13.1246  13.1246  13.1747  14.4276  14.4276  16.6978  27.6255

          k = 0.0445 0.0445 0.0445 (   362 PWs)   bands (ev):

   -71.8752 -37.7651 -37.7121 -37.7121  -5.4934   8.9292  10.0328  10.0328
    13.2327  13.2327  13.2819  14.7473  14.7473  17.2559  26.9658

          k = 0.0535 0.0535 0.0535 (   362 PWs)   bands (ev):

   -71.8741 -37.7691 -37.7128 -37.7128  -5.3519   8.3908   9.7819   9.7819
    13.3504  13.3504  13.4038  15.0663  15.0663  17.8102  26.3211

          k = 0.0624 0.0624 0.0624 (   368 PWs)   bands (ev):

   -71.8770 -37.8187 -37.7167 -37.7167  -5.2023   7.8173   9.5480   9.5480
    13.4724  13.4724  13.5358  15.3687  15.3687  18.2983  25.6956

          k = 0.0713 0.0713 0.0713 (   365 PWs)   bands (ev):

   -71.8733 -37.8192 -37.7077 -37.7077  -5.0504   7.3552   9.3537   9.3537
    13.5926  13.5926  13.6840  15.6536  15.6536  18.7692  25.1560

          k = 0.0802 0.0802 0.0802 (   362 PWs)   bands (ev):

   -71.8696 -37.8047 -37.7052 -37.7052  -4.8995   6.9700   9.1843   9.1843
    13.7037  13.7037  13.8413  15.8989  15.8989  19.2021  24.6693

          k = 0.0891 0.0891 0.0891 (   368 PWs)   bands (ev):

   -71.8734 -37.8297 -37.7197 -37.7197  -4.7761   6.6129   9.0350   9.0350
    13.7987  13.7987  13.9814  16.0892  16.0892  19.4538  24.3209

          k = 0.0980 0.0980 0.0980 (   374 PWs)   bands (ev):

   -71.8774 -37.8742 -37.7281 -37.7281  -4.6805   6.3678   8.9312   8.9312
    13.8715  13.8715  14.0994  16.2353  16.2353  19.6098  23.9891

          k = 0.1069 0.1069 0.1069 (   374 PWs)   bands (ev):

   -71.8771 -37.8793 -37.7279 -37.7279  -4.6188   6.2169   8.8717   8.8717
    13.9175  13.9175  14.1807  16.3276  16.3276  19.6913  23.8588

          k = 0.1158 0.1158 0.1158 (   368 PWs)   bands (ev):

   -71.8722 -37.8583 -37.7134 -37.7134  -4.5959   6.1664   8.8629   8.8629
    13.9336  13.9336  14.2103  16.3676  16.3676  19.7531  23.8696

          k = 0.1287 0.1094 0.1094 (   376 PWs)   bands (ev):

   -71.8788 -37.8735 -37.7533 -37.7265  -4.5963   6.1940   8.8259   8.8623
    13.9162  13.9340  14.2022  16.2816  16.3442  19.8532  23.8066

          k = 0.1416 0.1030 0.1030 (   378 PWs)   bands (ev):

   -71.8802 -37.8726 -37.7559 -37.7424  -4.5943   6.2825   8.7923   8.8777
    13.8666  13.9360  14.1839  16.1066  16.2883  20.1735  23.7578

          k = 0.1544 0.0965 0.0965 (   381 PWs)   bands (ev):

   -71.8824 -37.8690 -37.7786 -37.7509  -4.5905   6.4364   8.7287   8.9100
    13.7856  13.9408  14.1628  15.8659  16.2040  20.6340  23.6767

          k = 0.1673 0.0901 0.0901 (   375 PWs)   bands (ev):

   -71.8776 -37.8389 -37.7671 -37.7435  -4.5842   6.6436   8.6628   8.9641
    13.6789  13.9497  14.1498  15.6102  16.0981  21.2289  23.6347

          k = 0.1802 0.0837 0.0837 (   376 PWs)   bands (ev):

   -71.8780 -37.8373 -37.7767 -37.7470  -4.5806   6.8851   8.5519   9.0241
    13.5487  13.9640  14.1459  15.3477  15.9657  21.8352  23.5261

          k = 0.1930 0.0772 0.0772 (   380 PWs)   bands (ev):

   -71.8807 -37.8393 -37.7938 -37.7648  -4.5777   7.1576   8.4273   9.0835
    13.3999  13.9846  14.1573  15.1138  15.8095  22.4331  23.4017

          k = 0.2059 0.0708 0.0708 (   383 PWs)   bands (ev):

   -71.8827 -37.8349 -37.8265 -37.7674  -4.5771   7.4555   8.2730   9.1590
    13.2363  14.0121  14.1806  14.9243  15.6435  22.8571  23.4143

          k = 0.2188 0.0643 0.0643 (   378 PWs)   bands (ev):

   -71.8788 -37.8227 -37.8197 -37.7467  -4.5799   7.7677   8.1437   9.2474
    13.0649  14.0454  14.2083  14.8041  15.4691  22.8456  23.8329

          k = 0.2316 0.0579 0.0579 (   377 PWs)   bands (ev):

   -71.8778 -37.8175 -37.8164 -37.7475  -4.5891   7.9686   8.1163   9.3340
    12.8898  14.0820  14.2260  14.7594  15.2854  22.6080  24.2915

          k = 0.2316 0.0463 0.0695 (   380 PWs)   bands (ev):

   -71.8803 -37.8259 -37.8168 -37.7648  -4.5871   7.9710   8.1283   9.2675
    12.9339  14.0562  14.2313  14.7275  15.2874  22.6292  24.2915

          k = 0.2316 0.0347 0.0811 (   380 PWs)   bands (ev):

   -71.8806 -37.8200 -37.8186 -37.7717  -4.5814   8.0240   8.1714   9.1099
    13.0554  13.9882  14.2421  14.6511  15.2950  22.7605  24.3165

          k = 0.2316 0.0232 0.0927 (   380 PWs)   bands (ev):

   -71.8806 -37.8181 -37.8173 -37.7765  -4.5737   8.0932   8.2378   8.9131
    13.2272  13.8869  14.2491  14.5653  15.3069  22.9201  24.3617

          k = 0.2316 0.0116 0.1042 (   383 PWs)   bands (ev):

   -71.8827 -37.8221 -37.8131 -37.8021  -4.5668   8.1877   8.3085   8.6699
    13.4146  13.7560  14.2523  14.5017  15.3082  23.0658  24.4345

          k = 0.2316-0.0000 0.1158 (   380 PWs)   bands (ev):

   -71.8805 -37.8058 -37.8058 -37.8006  -4.5636   8.3116   8.3116   8.5460
    13.5990  13.5990  14.2530  14.4801  15.3091  23.1359  24.5294

          k = 0.2201 0.0116 0.1158 (   384 PWs)   bands (ev):

   -71.8835 -37.8272 -37.8161 -37.8028  -4.5644   8.1318   8.3127   8.6621
    13.5912  13.6050  14.2517  14.5224  15.3413  23.1352  24.3457

          k = 0.2085 0.0232 0.1158 (   378 PWs)   bands (ev):

   -71.8787 -37.8139 -37.7959 -37.7780  -4.5659   7.8545   8.3638   8.8170
    13.5859  13.6301  14.2458  14.6422  15.4395  23.2108  23.9324

          k = 0.1969 0.0347 0.1158 (   380 PWs)   bands (ev):

   -71.8804 -37.8349 -37.7888 -37.7799  -4.5698   7.5402   8.4224   8.9068
    13.5888  13.6727  14.2308  14.8211  15.5813  23.2617  23.3281

          k = 0.1853 0.0463 0.1158 (   380 PWs)   bands (ev):

   -71.8811 -37.8439 -37.7813 -37.7781  -4.5745   7.2242   8.5027   8.9497
    13.6124  13.7348  14.2086  15.0454  15.7446  22.6570  23.3650

          k = 0.1737 0.0579 0.1158 (   378 PWs)   bands (ev):

   -71.8800 -37.8472 -37.7753 -37.7608  -4.5792   6.9356   8.5788   8.9529
    13.6587  13.8059  14.1852  15.2962  15.9088  21.9832  23.4779

          k = 0.1622 0.0695 0.1158 (   380 PWs)   bands (ev):

   -71.8817 -37.8596 -37.7706 -37.7661  -4.5844   6.6780   8.6638   8.9285
    13.7236  13.8701  14.1683  15.5688  16.0572  21.3070  23.5664

          k = 0.1506 0.0811 0.1158 (   378 PWs)   bands (ev):

   -71.8803 -37.8600 -37.7608 -37.7531  -4.5882   6.4672   8.7363   8.9021
    13.7977  13.9134  14.1690  15.8411  16.1853  20.7150  23.6646

          k = 0.1390 0.0927 0.1158 (   380 PWs)   bands (ev):

   -71.8820 -37.8804 -37.7554 -37.7546  -4.5945   6.2919   8.7896   8.8693
    13.8664  13.9303  14.1826  16.0897  16.2755  20.1978  23.7325

          k = 0.1274 0.1042 0.1158 (   380 PWs)   bands (ev):

   -71.8820 -37.8813 -37.7534 -37.7524  -4.5969   6.1950   8.8247   8.8468
    13.9152  13.9331  14.2011  16.2760  16.3311  19.8535  23.7816

          k = 0.1158 0.1158 0.1158 (   368 PWs)   bands (ev):

   -71.8722 -37.8583 -37.7134 -37.7134  -4.5959   6.1664   8.8629   8.8629
    13.9336  13.9336  14.2103  16.3676  16.3676  19.7531  23.8696

          k = 0.1223 0.1030 0.1223 (   376 PWs)   bands (ev):

   -71.8788 -37.8735 -37.7533 -37.7265  -4.5963   6.1940   8.8259   8.8623
    13.9162  13.9340  14.2022  16.2816  16.3442  19.8532  23.8066

          k = 0.1287 0.0901 0.1287 (   378 PWs)   bands (ev):

   -71.8802 -37.8726 -37.7559 -37.7424  -4.5943   6.2825   8.7923   8.8777
    13.8666  13.9360  14.1839  16.1066  16.2883  20.1735  23.7578

          k = 0.1351 0.0772 0.1351 (   381 PWs)   bands (ev):

   -71.8824 -37.8690 -37.7786 -37.7509  -4.5905   6.4364   8.7287   8.9100
    13.7856  13.9408  14.1628  15.8659  16.2040  20.6340  23.6767

          k = 0.1416 0.0643 0.1416 (   375 PWs)   bands (ev):

   -71.8776 -37.8389 -37.7671 -37.7435  -4.5842   6.6436   8.6628   8.9641
    13.6789  13.9497  14.1498  15.6102  16.0981  21.2289  23.6347

          k = 0.1480 0.0515 0.1480 (   376 PWs)   bands (ev):

   -71.8780 -37.8373 -37.7767 -37.7470  -4.5806   6.8851   8.5519   9.0241
    13.5487  13.9640  14.1459  15.3477  15.9657  21.8352  23.5261

          k = 0.1544 0.0386 0.1544 (   380 PWs)   bands (ev):

   -71.8807 -37.8393 -37.7938 -37.7648  -4.5777   7.1576   8.4273   9.0835
    13.3999  13.9846  14.1573  15.1138  15.8095  22.4331  23.4017

          k = 0.1609 0.0257 0.1609 (   383 PWs)   bands (ev):

   -71.8827 -37.8349 -37.8265 -37.7674  -4.5771   7.4555   8.2730   9.1590
    13.2363  14.0121  14.1806  14.9243  15.6435  22.8571  23.4143

          k = 0.1673 0.0129 0.1673 (   378 PWs)   bands (ev):

   -71.8788 -37.8227 -37.8197 -37.7467  -4.5799   7.7677   8.1437   9.2474
    13.0649  14.0454  14.2083  14.8041  15.4691  22.8456  23.8329

          k = 0.1737 0.0000 0.1737 (   377 PWs)   bands (ev):

   -71.8778 -37.8175 -37.8164 -37.7475  -4.5891   7.9686   8.1163   9.3340
    12.8898  14.0820  14.2260  14.7594  15.2854  22.6080  24.2915

     Writing output data file pwscf.save

     init_run     :      0.23s CPU      0.25s WALL (       1 calls)
     electrons    :      4.63s CPU      4.75s WALL (       1 calls)

     Called by init_run:
     wfcinit      :      0.00s CPU      0.00s WALL (       1 calls)
     wfcinit:atom :      0.01s CPU      0.01s WALL (     178 calls)
     wfcinit:wfcr :      0.41s CPU      0.42s WALL (     178 calls)
     potinit      :      0.13s CPU      0.14s WALL (       1 calls)

     Called by electrons:
     c_bands      :      4.63s CPU      4.75s WALL (       1 calls)
     v_of_rho     :      0.00s CPU      0.00s WALL (       1 calls)
     v_h          :      0.00s CPU      0.00s WALL (       1 calls)
     v_xc         :      0.00s CPU      0.00s WALL (       1 calls)
     newd         :      0.00s CPU      0.00s WALL (       1 calls)
     PAW_pot      :      0.12s CPU      0.13s WALL (       1 calls)

     Called by c_bands:
     init_us_2    :      0.01s CPU      0.01s WALL (     178 calls)
     cegterg      :      4.14s CPU      4.25s WALL (     178 calls)

     Called by sum_band:

     Called by *egterg:
     h_psi        :      2.03s CPU      2.09s WALL (    2065 calls)
     s_psi        :      0.07s CPU      0.07s WALL (    2065 calls)
     g_psi        :      0.01s CPU      0.01s WALL (    1709 calls)
     cdiaghg      :      2.07s CPU      2.06s WALL (    1887 calls)
     cegterg:over :      0.20s CPU      0.18s WALL (    1709 calls)
     cegterg:upda :      0.04s CPU      0.08s WALL (    1709 calls)
     cegterg:last :      0.05s CPU      0.06s WALL (     356 calls)

     Called by h_psi:
     h_psi:pot    :      2.02s CPU      2.08s WALL (    2065 calls)
     h_psi:calbec :      0.10s CPU      0.10s WALL (    2065 calls)
     vloc_psi     :      1.84s CPU      1.90s WALL (    2065 calls)
     add_vuspsi   :      0.08s CPU      0.08s WALL (    2065 calls)

     General routines
     calbec       :      0.10s CPU      0.09s WALL (    2065 calls)
     fft          :      0.01s CPU      0.01s WALL (       7 calls)
     fftw         :      1.68s CPU      1.71s WALL (   38394 calls)
     davcio       :      0.00s CPU      0.00s WALL (     356 calls)

     Parallel routines
     fft_scatter  :      0.37s CPU      0.39s WALL (   38401 calls)

     PAW routines
     PAW_pot      :      0.12s CPU      0.13s WALL (       1 calls)

     PWSCF        :     6.24s CPU         6.94s WALL


   This run was terminated on:  18:20:54  15Aug2017            

=------------------------------------------------------------------------------=
   JOB DONE.
=------------------------------------------------------------------------------=
