
.Version 8.4.2 of ABINIT 
.(MPI version, prepared for a x86_64_linux_gnu4.8 computer) 

.Copyright (C) 1998-2017 ABINIT group . 
 ABINIT comes with ABSOLUTELY NO WARRANTY.
 It is free software, and you are welcome to redistribute it
 under certain conditions (GNU General Public License,
 see ~abinit/COPYING or http://www.gnu.org/copyleft/gpl.txt).

 ABINIT is a project of the Universite Catholique de Louvain,
 Corning Inc. and other collaborators, see ~abinit/doc/developers/contributors.txt .
 Please read ~abinit/doc/users/acknowledgments.html for suggested
 acknowledgments of the ABINIT effort.
 For more information, see http://www.abinit.org .

.Starting date : Tue 15 Aug 2017.
- ( at 22h15 )
  
- input  file    -> abinit.in
- output file    -> abinit.out
- root for input  files -> abinit_i
- root for output files -> abinit_o


 DATASET    1 : space group I4 (# 79); Bravais tI (body-center tetrag.)
================================================================================
 Values of the parameters that define the memory need for DATASET  1.
     intxc =       0    ionmov =       0      iscf =      17    lmnmax =      18
     lnmax =       6     mgfft =      24  mpssoang =       3    mqgrid =    3001
     natom =       2  nloc_mem =       2    nspden =       4   nspinor =       2
    nsppol =       1      nsym =       4    n1xccc =       1    ntypat =       2
    occopt =       7   xclevel =       2
-    mband =          40        mffmem =           1         mkmem =           4
       mpw =         382          nfft =       13824          nkpt =          64
Pmy_natom=         1
 PAW method is used; the additional fine FFT grid is defined by:
   mgfftf=        36    nfftf =     46656
================================================================================
P This job should need less than                      43.477 Mbytes of memory.
  Rough estimation (10% accuracy) of disk space for files :
_ WF disk file :     14.924 Mbytes ; DEN or POT disk file :      0.358 Mbytes.
================================================================================


 DATASET    2 : space group I4 (# 79); Bravais tI (body-center tetrag.)
================================================================================
 Values of the parameters that define the memory need for DATASET  2.
     intxc =       0    ionmov =       0      iscf =      -2    lmnmax =      18
     lnmax =       6     mgfft =      24  mpssoang =       3    mqgrid =    3001
     natom =       2  nloc_mem =       2    nspden =       4   nspinor =       2
    nsppol =       1      nsym =       4    n1xccc =       1    ntypat =       2
    occopt =       7   xclevel =       2
-    mband =          40        mffmem =           1         mkmem =           6
       mpw =         388          nfft =       13824          nkpt =          89
Pmy_natom=         1
 PAW method is used; the additional fine FFT grid is defined by:
   mgfftf=        36    nfftf =     46656
================================================================================
P This job should need less than                      32.006 Mbytes of memory.
  Rough estimation (10% accuracy) of disk space for files :
_ WF disk file :     21.079 Mbytes ; DEN or POT disk file :      0.358 Mbytes.
================================================================================


 DATASET    3 : space group I4 (# 79); Bravais tI (body-center tetrag.)
================================================================================
 Values of the parameters that define the memory need for DATASET  3.
     intxc =       0    ionmov =       0      iscf =      -2    lmnmax =      18
     lnmax =       6     mgfft =      24  mpssoang =       3    mqgrid =    3001
     natom =       2  nloc_mem =       2    nspden =       4   nspinor =       2
    nsppol =       1      nsym =       4    n1xccc =       1    ntypat =       2
    occopt =       7   xclevel =       2
-    mband =          40        mffmem =           1         mkmem =           6
       mpw =         388          nfft =       13824          nkpt =          89
Pmy_natom=         1
 PAW method is used; the additional fine FFT grid is defined by:
   mgfftf=        36    nfftf =     46656
================================================================================
P This job should need less than                      32.006 Mbytes of memory.
  Rough estimation (10% accuracy) of disk space for files :
_ WF disk file :     21.079 Mbytes ; DEN or POT disk file :      0.358 Mbytes.
================================================================================


 DATASET    4 : space group I4 (# 79); Bravais tI (body-center tetrag.)
================================================================================
 Values of the parameters that define the memory need for DATASET  4.
     intxc =       0    ionmov =       0      iscf =      -3    lmnmax =      18
     lnmax =       6     mgfft =      24  mpssoang =       3    mqgrid =    3001
     natom =       2  nloc_mem =       2    nspden =       4   nspinor =       2
    nsppol =       1      nsym =       4    n1xccc =       1    ntypat =       2
    occopt =       7   xclevel =       2
-    mband =          40        mffmem =           1         mkmem =           4
       mpw =         382          nfft =       13824          nkpt =          64
Pmy_natom=         1
 PAW method is used; the additional fine FFT grid is defined by:
   mgfftf=        36    nfftf =     46656
================================================================================
P This job should need less than                      30.943 Mbytes of memory.
  Rough estimation (10% accuracy) of disk space for files :
_ WF disk file :     14.924 Mbytes ; DEN or POT disk file :      0.358 Mbytes.
================================================================================

--------------------------------------------------------------------------------
------------- Echo of variables that govern the present computation ------------
--------------------------------------------------------------------------------
-
- outvars: echo of selected default values                                      
-   iomode0 =  0 , fftalg0 =112 , wfoptalg0 = 10
-
- outvars: echo of global parameters not present in the input file              
-  max_nthreads =    0
-
 -outvars: echo values of preprocessed input variables --------
            acell      1.8897261329E+00  1.8897261329E+00  1.8897261329E+00 Bohr
              amu      5.58470000E+01  1.59994000E+01
        autoparal           1
             ecut      1.50000000E+01 Hartree
-          fftalg         112
           getden1          0
           getden2          1
           getden3          1
           getden4          1
           iatsph3       1    2
           iatsph4       1    2
             iscf1         17
             iscf2         -2
             iscf3         -2
             iscf4         -3
           istwfk2       1    0    0    0    0    0    0    0    0    0
                         0    0    0    0    0    1    0    0    0    0
                         0    0    0    0    0    0    0    0    0    0
                         0    0    0    0    0    0    0    0    0    0
                         0    0    1    0    0    0    0    0    0    0
           istwfk3       1    0    0    0    0    0    0    0    0    0
                         0    0    0    0    0    1    0    0    0    0
                         0    0    0    0    0    0    0    0    0    0
                         0    0    0    0    0    0    0    0    0    0
                         0    0    1    0    0    0    0    0    0    0
              ixc          11
           jdtset        1    2    3    4
              kpt1    -1.25000000E-01  0.00000000E+00  0.00000000E+00
                      -1.25000000E-01  0.00000000E+00  2.50000000E-01
                      -2.50000000E-01  0.00000000E+00  1.25000000E-01
                      -1.25000000E-01  1.25000000E-01  1.25000000E-01
                      -3.75000000E-01  0.00000000E+00  0.00000000E+00
                      -2.50000000E-01  1.25000000E-01  0.00000000E+00
                      -1.25000000E-01  2.50000000E-01  0.00000000E+00
                      -1.25000000E-01  0.00000000E+00  5.00000000E-01
                      -2.50000000E-01  0.00000000E+00  3.75000000E-01
                      -1.25000000E-01  1.25000000E-01  3.75000000E-01
                      -3.75000000E-01  0.00000000E+00  2.50000000E-01
                      -2.50000000E-01  1.25000000E-01  2.50000000E-01
                      -1.25000000E-01  2.50000000E-01  2.50000000E-01
                       5.00000000E-01  0.00000000E+00  1.25000000E-01
                      -3.75000000E-01  1.25000000E-01  1.25000000E-01
                      -2.50000000E-01  2.50000000E-01  1.25000000E-01
                      -1.25000000E-01  3.75000000E-01  1.25000000E-01
                       3.75000000E-01  0.00000000E+00  0.00000000E+00
                       5.00000000E-01  1.25000000E-01  0.00000000E+00
                      -3.75000000E-01  2.50000000E-01  0.00000000E+00
                      -2.50000000E-01  3.75000000E-01  0.00000000E+00
                      -1.25000000E-01  5.00000000E-01  0.00000000E+00
                      -1.25000000E-01  0.00000000E+00 -2.50000000E-01
                      -2.50000000E-01  0.00000000E+00 -3.75000000E-01
                      -1.25000000E-01  1.25000000E-01 -3.75000000E-01
                      -3.75000000E-01  0.00000000E+00  5.00000000E-01
                      -2.50000000E-01  1.25000000E-01  5.00000000E-01
                      -1.25000000E-01  2.50000000E-01  5.00000000E-01
                       5.00000000E-01  0.00000000E+00  3.75000000E-01
                      -3.75000000E-01  1.25000000E-01  3.75000000E-01
                      -2.50000000E-01  2.50000000E-01  3.75000000E-01
                      -1.25000000E-01  3.75000000E-01  3.75000000E-01
                       3.75000000E-01  0.00000000E+00  2.50000000E-01
                       5.00000000E-01  1.25000000E-01  2.50000000E-01
                      -3.75000000E-01  2.50000000E-01  2.50000000E-01
                      -2.50000000E-01  3.75000000E-01  2.50000000E-01
                      -1.25000000E-01  5.00000000E-01  2.50000000E-01
                       2.50000000E-01  0.00000000E+00  1.25000000E-01
                       3.75000000E-01  1.25000000E-01  1.25000000E-01
                       5.00000000E-01  2.50000000E-01  1.25000000E-01
                      -3.75000000E-01  3.75000000E-01  1.25000000E-01
                      -2.50000000E-01  5.00000000E-01  1.25000000E-01
                      -1.25000000E-01 -3.75000000E-01  1.25000000E-01
                       1.25000000E-01  0.00000000E+00  0.00000000E+00
                       2.50000000E-01  1.25000000E-01  0.00000000E+00
                       3.75000000E-01  2.50000000E-01  0.00000000E+00
                       5.00000000E-01  3.75000000E-01  0.00000000E+00
                      -3.75000000E-01  5.00000000E-01  0.00000000E+00
                      -2.50000000E-01 -3.75000000E-01  0.00000000E+00
                      -1.25000000E-01 -2.50000000E-01  0.00000000E+00
              kpt2     0.00000000E+00  0.00000000E+00  0.00000000E+00
                       3.33333333E-02  3.33333333E-02  0.00000000E+00
                       6.66666667E-02  6.66666667E-02  0.00000000E+00
                       1.00000000E-01  1.00000000E-01  0.00000000E+00
                       1.33333333E-01  1.33333333E-01  0.00000000E+00
                       1.66666667E-01  1.66666667E-01  0.00000000E+00
                       2.00000000E-01  2.00000000E-01  0.00000000E+00
                       2.33333333E-01  2.33333333E-01  0.00000000E+00
                       2.66666667E-01  2.66666667E-01  0.00000000E+00
                       3.00000000E-01  3.00000000E-01  0.00000000E+00
                       3.33333333E-01  3.33333333E-01  0.00000000E+00
                       3.66666667E-01  3.66666667E-01  0.00000000E+00
                       4.00000000E-01  4.00000000E-01  0.00000000E+00
                       4.33333333E-01  4.33333333E-01  0.00000000E+00
                       4.66666667E-01  4.66666667E-01  0.00000000E+00
                       5.00000000E-01  5.00000000E-01  0.00000000E+00
                       5.00000000E-01  5.35714286E-01  3.57142857E-02
                       5.00000000E-01  5.71428571E-01  7.14285714E-02
                       5.00000000E-01  6.07142857E-01  1.07142857E-01
                       5.00000000E-01  6.42857143E-01  1.42857143E-01
                       5.00000000E-01  6.78571429E-01  1.78571429E-01
                       5.00000000E-01  7.14285714E-01  2.14285714E-01
                       5.00000000E-01  7.50000000E-01  2.50000000E-01
                       4.75000000E-01  7.50000000E-01  2.75000000E-01
                       4.50000000E-01  7.50000000E-01  3.00000000E-01
                       4.25000000E-01  7.50000000E-01  3.25000000E-01
                       4.00000000E-01  7.50000000E-01  3.50000000E-01
                       3.75000000E-01  7.50000000E-01  3.75000000E-01
                       3.50000000E-01  7.00000000E-01  3.50000000E-01
                       3.25000000E-01  6.50000000E-01  3.25000000E-01
                       3.00000000E-01  6.00000000E-01  3.00000000E-01
                       2.75000000E-01  5.50000000E-01  2.75000000E-01
                       2.50000000E-01  5.00000000E-01  2.50000000E-01
                       2.25000000E-01  4.50000000E-01  2.25000000E-01
                       2.00000000E-01  4.00000000E-01  2.00000000E-01
                       1.75000000E-01  3.50000000E-01  1.75000000E-01
                       1.50000000E-01  3.00000000E-01  1.50000000E-01
                       1.25000000E-01  2.50000000E-01  1.25000000E-01
                       1.00000000E-01  2.00000000E-01  1.00000000E-01
                       7.50000000E-02  1.50000000E-01  7.50000000E-02
                       5.00000000E-02  1.00000000E-01  5.00000000E-02
                       2.50000000E-02  5.00000000E-02  2.50000000E-02
                       0.00000000E+00  0.00000000E+00  0.00000000E+00
                       3.84615385E-02  3.84615385E-02  3.84615385E-02
                       7.69230769E-02  7.69230769E-02  7.69230769E-02
                       1.15384615E-01  1.15384615E-01  1.15384615E-01
                       1.53846154E-01  1.53846154E-01  1.53846154E-01
                       1.92307692E-01  1.92307692E-01  1.92307692E-01
                       2.30769231E-01  2.30769231E-01  2.30769231E-01
                       2.69230769E-01  2.69230769E-01  2.69230769E-01
              kpt3     0.00000000E+00  0.00000000E+00  0.00000000E+00
                       3.33333333E-02  3.33333333E-02  0.00000000E+00
                       6.66666667E-02  6.66666667E-02  0.00000000E+00
                       1.00000000E-01  1.00000000E-01  0.00000000E+00
                       1.33333333E-01  1.33333333E-01  0.00000000E+00
                       1.66666667E-01  1.66666667E-01  0.00000000E+00
                       2.00000000E-01  2.00000000E-01  0.00000000E+00
                       2.33333333E-01  2.33333333E-01  0.00000000E+00
                       2.66666667E-01  2.66666667E-01  0.00000000E+00
                       3.00000000E-01  3.00000000E-01  0.00000000E+00
                       3.33333333E-01  3.33333333E-01  0.00000000E+00
                       3.66666667E-01  3.66666667E-01  0.00000000E+00
                       4.00000000E-01  4.00000000E-01  0.00000000E+00
                       4.33333333E-01  4.33333333E-01  0.00000000E+00
                       4.66666667E-01  4.66666667E-01  0.00000000E+00
                       5.00000000E-01  5.00000000E-01  0.00000000E+00
                       5.00000000E-01  5.35714286E-01  3.57142857E-02
                       5.00000000E-01  5.71428571E-01  7.14285714E-02
                       5.00000000E-01  6.07142857E-01  1.07142857E-01
                       5.00000000E-01  6.42857143E-01  1.42857143E-01
                       5.00000000E-01  6.78571429E-01  1.78571429E-01
                       5.00000000E-01  7.14285714E-01  2.14285714E-01
                       5.00000000E-01  7.50000000E-01  2.50000000E-01
                       4.75000000E-01  7.50000000E-01  2.75000000E-01
                       4.50000000E-01  7.50000000E-01  3.00000000E-01
                       4.25000000E-01  7.50000000E-01  3.25000000E-01
                       4.00000000E-01  7.50000000E-01  3.50000000E-01
                       3.75000000E-01  7.50000000E-01  3.75000000E-01
                       3.50000000E-01  7.00000000E-01  3.50000000E-01
                       3.25000000E-01  6.50000000E-01  3.25000000E-01
                       3.00000000E-01  6.00000000E-01  3.00000000E-01
                       2.75000000E-01  5.50000000E-01  2.75000000E-01
                       2.50000000E-01  5.00000000E-01  2.50000000E-01
                       2.25000000E-01  4.50000000E-01  2.25000000E-01
                       2.00000000E-01  4.00000000E-01  2.00000000E-01
                       1.75000000E-01  3.50000000E-01  1.75000000E-01
                       1.50000000E-01  3.00000000E-01  1.50000000E-01
                       1.25000000E-01  2.50000000E-01  1.25000000E-01
                       1.00000000E-01  2.00000000E-01  1.00000000E-01
                       7.50000000E-02  1.50000000E-01  7.50000000E-02
                       5.00000000E-02  1.00000000E-01  5.00000000E-02
                       2.50000000E-02  5.00000000E-02  2.50000000E-02
                       0.00000000E+00  0.00000000E+00  0.00000000E+00
                       3.84615385E-02  3.84615385E-02  3.84615385E-02
                       7.69230769E-02  7.69230769E-02  7.69230769E-02
                       1.15384615E-01  1.15384615E-01  1.15384615E-01
                       1.53846154E-01  1.53846154E-01  1.53846154E-01
                       1.92307692E-01  1.92307692E-01  1.92307692E-01
                       2.30769231E-01  2.30769231E-01  2.30769231E-01
                       2.69230769E-01  2.69230769E-01  2.69230769E-01
              kpt4    -1.25000000E-01  0.00000000E+00  0.00000000E+00
                      -1.25000000E-01  0.00000000E+00  2.50000000E-01
                      -2.50000000E-01  0.00000000E+00  1.25000000E-01
                      -1.25000000E-01  1.25000000E-01  1.25000000E-01
                      -3.75000000E-01  0.00000000E+00  0.00000000E+00
                      -2.50000000E-01  1.25000000E-01  0.00000000E+00
                      -1.25000000E-01  2.50000000E-01  0.00000000E+00
                      -1.25000000E-01  0.00000000E+00  5.00000000E-01
                      -2.50000000E-01  0.00000000E+00  3.75000000E-01
                      -1.25000000E-01  1.25000000E-01  3.75000000E-01
                      -3.75000000E-01  0.00000000E+00  2.50000000E-01
                      -2.50000000E-01  1.25000000E-01  2.50000000E-01
                      -1.25000000E-01  2.50000000E-01  2.50000000E-01
                       5.00000000E-01  0.00000000E+00  1.25000000E-01
                      -3.75000000E-01  1.25000000E-01  1.25000000E-01
                      -2.50000000E-01  2.50000000E-01  1.25000000E-01
                      -1.25000000E-01  3.75000000E-01  1.25000000E-01
                       3.75000000E-01  0.00000000E+00  0.00000000E+00
                       5.00000000E-01  1.25000000E-01  0.00000000E+00
                      -3.75000000E-01  2.50000000E-01  0.00000000E+00
                      -2.50000000E-01  3.75000000E-01  0.00000000E+00
                      -1.25000000E-01  5.00000000E-01  0.00000000E+00
                      -1.25000000E-01  0.00000000E+00 -2.50000000E-01
                      -2.50000000E-01  0.00000000E+00 -3.75000000E-01
                      -1.25000000E-01  1.25000000E-01 -3.75000000E-01
                      -3.75000000E-01  0.00000000E+00  5.00000000E-01
                      -2.50000000E-01  1.25000000E-01  5.00000000E-01
                      -1.25000000E-01  2.50000000E-01  5.00000000E-01
                       5.00000000E-01  0.00000000E+00  3.75000000E-01
                      -3.75000000E-01  1.25000000E-01  3.75000000E-01
                      -2.50000000E-01  2.50000000E-01  3.75000000E-01
                      -1.25000000E-01  3.75000000E-01  3.75000000E-01
                       3.75000000E-01  0.00000000E+00  2.50000000E-01
                       5.00000000E-01  1.25000000E-01  2.50000000E-01
                      -3.75000000E-01  2.50000000E-01  2.50000000E-01
                      -2.50000000E-01  3.75000000E-01  2.50000000E-01
                      -1.25000000E-01  5.00000000E-01  2.50000000E-01
                       2.50000000E-01  0.00000000E+00  1.25000000E-01
                       3.75000000E-01  1.25000000E-01  1.25000000E-01
                       5.00000000E-01  2.50000000E-01  1.25000000E-01
                      -3.75000000E-01  3.75000000E-01  1.25000000E-01
                      -2.50000000E-01  5.00000000E-01  1.25000000E-01
                      -1.25000000E-01 -3.75000000E-01  1.25000000E-01
                       1.25000000E-01  0.00000000E+00  0.00000000E+00
                       2.50000000E-01  1.25000000E-01  0.00000000E+00
                       3.75000000E-01  2.50000000E-01  0.00000000E+00
                       5.00000000E-01  3.75000000E-01  0.00000000E+00
                      -3.75000000E-01  5.00000000E-01  0.00000000E+00
                      -2.50000000E-01 -3.75000000E-01  0.00000000E+00
                      -1.25000000E-01 -2.50000000E-01  0.00000000E+00
                       outvar_i_n : Printing only first  50 k-points.
           kptopt1          4
           kptopt2         -9
           kptopt3         -9
           kptopt4          4
         kptrlatt        4    4   -4     -4    4   -4     -4    4    4
          kptrlen1     3.26310711E+01
          kptrlen2     3.00000000E+01
          kptrlen3     3.00000000E+01
          kptrlen4     3.26310711E+01
P           mkmem1          4
P           mkmem2          6
P           mkmem3          6
P           mkmem4          4
            natom           2
           natsph3       2
           natsph4       2
            nband1         40
            nband2         40
            nband3         40
            nband4         40
           nbdbuf1          0
           nbdbuf2          4
           nbdbuf3          4
           nbdbuf4          4
           ndtset           4
            ngfft          24      24      24
          ngfftdg          36      36      36
             nkpt1         64
             nkpt2         89
             nkpt3         89
             nkpt4         64
-           npkpt          16
           nspden           4
          nspinor           2
            nstep1        100
            nstep2         30
            nstep3         30
            nstep4         30
             nsym           4
           ntypat           2
              occ      1.000000  1.000000  1.000000  1.000000  1.000000  1.000000
                       1.000000  1.000000  1.000000  1.000000  1.000000  1.000000
                       1.000000  1.000000  1.000000  1.000000  1.000000  1.000000
                       1.000000  1.000000  1.000000  1.000000  0.000000  0.000000
                       0.000000  0.000000  0.000000  0.000000  0.000000  0.000000
                       0.000000  0.000000  0.000000  0.000000  0.000000  0.000000
                       0.000000  0.000000  0.000000  0.000000
                       1.000000  1.000000  1.000000  1.000000  1.000000  1.000000
                       1.000000  1.000000  1.000000  1.000000  1.000000  1.000000
                       1.000000  1.000000  1.000000  1.000000  1.000000  1.000000
                       1.000000  1.000000  1.000000  1.000000  0.000000  0.000000
                       0.000000  0.000000  0.000000  0.000000  0.000000  0.000000
                       0.000000  0.000000  0.000000  0.000000  0.000000  0.000000
                       0.000000  0.000000  0.000000  0.000000
                       1.000000  1.000000  1.000000  1.000000  1.000000  1.000000
                       1.000000  1.000000  1.000000  1.000000  1.000000  1.000000
                       1.000000  1.000000  1.000000  1.000000  1.000000  1.000000
                       1.000000  1.000000  1.000000  1.000000  0.000000  0.000000
                       0.000000  0.000000  0.000000  0.000000  0.000000  0.000000
                       0.000000  0.000000  0.000000  0.000000  0.000000  0.000000
                       0.000000  0.000000  0.000000  0.000000
                       1.000000  1.000000  1.000000  1.000000  1.000000  1.000000
                       1.000000  1.000000  1.000000  1.000000  1.000000  1.000000
                       1.000000  1.000000  1.000000  1.000000  1.000000  1.000000
                       1.000000  1.000000  1.000000  1.000000  0.000000  0.000000
                       0.000000  0.000000  0.000000  0.000000  0.000000  0.000000
                       0.000000  0.000000  0.000000  0.000000  0.000000  0.000000
                       0.000000  0.000000  0.000000  0.000000
                       1.000000  1.000000  1.000000  1.000000  1.000000  1.000000
                       1.000000  1.000000  1.000000  1.000000  1.000000  1.000000
                       1.000000  1.000000  1.000000  1.000000  1.000000  1.000000
                       1.000000  1.000000  1.000000  1.000000  0.000000  0.000000
                       0.000000  0.000000  0.000000  0.000000  0.000000  0.000000
                       0.000000  0.000000  0.000000  0.000000  0.000000  0.000000
                       0.000000  0.000000  0.000000  0.000000
                       1.000000  1.000000  1.000000  1.000000  1.000000  1.000000
                       1.000000  1.000000  1.000000  1.000000  1.000000  1.000000
                       1.000000  1.000000  1.000000  1.000000  1.000000  1.000000
                       1.000000  1.000000  1.000000  1.000000  0.000000  0.000000
                       0.000000  0.000000  0.000000  0.000000  0.000000  0.000000
                       0.000000  0.000000  0.000000  0.000000  0.000000  0.000000
                       0.000000  0.000000  0.000000  0.000000
                       1.000000  1.000000  1.000000  1.000000  1.000000  1.000000
                       1.000000  1.000000  1.000000  1.000000  1.000000  1.000000
                       1.000000  1.000000  1.000000  1.000000  1.000000  1.000000
                       1.000000  1.000000  1.000000  1.000000  0.000000  0.000000
                       0.000000  0.000000  0.000000  0.000000  0.000000  0.000000
                       0.000000  0.000000  0.000000  0.000000  0.000000  0.000000
                       0.000000  0.000000  0.000000  0.000000
                       1.000000  1.000000  1.000000  1.000000  1.000000  1.000000
                       1.000000  1.000000  1.000000  1.000000  1.000000  1.000000
                       1.000000  1.000000  1.000000  1.000000  1.000000  1.000000
                       1.000000  1.000000  1.000000  1.000000  0.000000  0.000000
                       0.000000  0.000000  0.000000  0.000000  0.000000  0.000000
                       0.000000  0.000000  0.000000  0.000000  0.000000  0.000000
                       0.000000  0.000000  0.000000  0.000000
                       1.000000  1.000000  1.000000  1.000000  1.000000  1.000000
                       1.000000  1.000000  1.000000  1.000000  1.000000  1.000000
                       1.000000  1.000000  1.000000  1.000000  1.000000  1.000000
                       1.000000  1.000000  1.000000  1.000000  0.000000  0.000000
                       0.000000  0.000000  0.000000  0.000000  0.000000  0.000000
                       0.000000  0.000000  0.000000  0.000000  0.000000  0.000000
                       0.000000  0.000000  0.000000  0.000000
                       1.000000  1.000000  1.000000  1.000000  1.000000  1.000000
                       1.000000  1.000000  1.000000  1.000000  1.000000  1.000000
                       1.000000  1.000000  1.000000  1.000000  1.000000  1.000000
                       1.000000  1.000000  1.000000  1.000000  0.000000  0.000000
                       0.000000  0.000000  0.000000  0.000000  0.000000  0.000000
                       0.000000  0.000000  0.000000  0.000000  0.000000  0.000000
                       0.000000  0.000000  0.000000  0.000000
                       1.000000  1.000000  1.000000  1.000000  1.000000  1.000000
                       1.000000  1.000000  1.000000  1.000000  1.000000  1.000000
                       1.000000  1.000000  1.000000  1.000000  1.000000  1.000000
                       1.000000  1.000000  1.000000  1.000000  0.000000  0.000000
                       0.000000  0.000000  0.000000  0.000000  0.000000  0.000000
                       0.000000  0.000000  0.000000  0.000000  0.000000  0.000000
                       0.000000  0.000000  0.000000  0.000000
                       1.000000  1.000000  1.000000  1.000000  1.000000  1.000000
                       1.000000  1.000000  1.000000  1.000000  1.000000  1.000000
                       1.000000  1.000000  1.000000  1.000000  1.000000  1.000000
                       1.000000  1.000000  1.000000  1.000000  0.000000  0.000000
                       0.000000  0.000000  0.000000  0.000000  0.000000  0.000000
                       0.000000  0.000000  0.000000  0.000000  0.000000  0.000000
                       0.000000  0.000000  0.000000  0.000000
                       1.000000  1.000000  1.000000  1.000000  1.000000  1.000000
                       1.000000  1.000000  1.000000  1.000000  1.000000  1.000000
                       1.000000  1.000000  1.000000  1.000000  1.000000  1.000000
                       1.000000  1.000000  1.000000  1.000000  0.000000  0.000000
                       0.000000  0.000000  0.000000  0.000000  0.000000  0.000000
                       0.000000  0.000000  0.000000  0.000000  0.000000  0.000000
                       0.000000  0.000000  0.000000  0.000000
                       1.000000  1.000000  1.000000  1.000000  1.000000  1.000000
                       1.000000  1.000000  1.000000  1.000000  1.000000  1.000000
                       1.000000  1.000000  1.000000  1.000000  1.000000  1.000000
                       1.000000  1.000000  1.000000  1.000000  0.000000  0.000000
                       0.000000  0.000000  0.000000  0.000000  0.000000  0.000000
                       0.000000  0.000000  0.000000  0.000000  0.000000  0.000000
                       0.000000  0.000000  0.000000  0.000000
                       1.000000  1.000000  1.000000  1.000000  1.000000  1.000000
                       1.000000  1.000000  1.000000  1.000000  1.000000  1.000000
                       1.000000  1.000000  1.000000  1.000000  1.000000  1.000000
                       1.000000  1.000000  1.000000  1.000000  0.000000  0.000000
                       0.000000  0.000000  0.000000  0.000000  0.000000  0.000000
                       0.000000  0.000000  0.000000  0.000000  0.000000  0.000000
                       0.000000  0.000000  0.000000  0.000000
                       1.000000  1.000000  1.000000  1.000000  1.000000  1.000000
                       1.000000  1.000000  1.000000  1.000000  1.000000  1.000000
                       1.000000  1.000000  1.000000  1.000000  1.000000  1.000000
                       1.000000  1.000000  1.000000  1.000000  0.000000  0.000000
                       0.000000  0.000000  0.000000  0.000000  0.000000  0.000000
                       0.000000  0.000000  0.000000  0.000000  0.000000  0.000000
                       0.000000  0.000000  0.000000  0.000000
                       1.000000  1.000000  1.000000  1.000000  1.000000  1.000000
                       1.000000  1.000000  1.000000  1.000000  1.000000  1.000000
                       1.000000  1.000000  1.000000  1.000000  1.000000  1.000000
                       1.000000  1.000000  1.000000  1.000000  0.000000  0.000000
                       0.000000  0.000000  0.000000  0.000000  0.000000  0.000000
                       0.000000  0.000000  0.000000  0.000000  0.000000  0.000000
                       0.000000  0.000000  0.000000  0.000000
                       1.000000  1.000000  1.000000  1.000000  1.000000  1.000000
                       1.000000  1.000000  1.000000  1.000000  1.000000  1.000000
                       1.000000  1.000000  1.000000  1.000000  1.000000  1.000000
                       1.000000  1.000000  1.000000  1.000000  0.000000  0.000000
                       0.000000  0.000000  0.000000  0.000000  0.000000  0.000000
                       0.000000  0.000000  0.000000  0.000000  0.000000  0.000000
                       0.000000  0.000000  0.000000  0.000000
                       1.000000  1.000000  1.000000  1.000000  1.000000  1.000000
                       1.000000  1.000000  1.000000  1.000000  1.000000  1.000000
                       1.000000  1.000000  1.000000  1.000000  1.000000  1.000000
                       1.000000  1.000000  1.000000  1.000000  0.000000  0.000000
                       0.000000  0.000000  0.000000  0.000000  0.000000  0.000000
                       0.000000  0.000000  0.000000  0.000000  0.000000  0.000000
                       0.000000  0.000000  0.000000  0.000000
                       1.000000  1.000000  1.000000  1.000000  1.000000  1.000000
                       1.000000  1.000000  1.000000  1.000000  1.000000  1.000000
                       1.000000  1.000000  1.000000  1.000000  1.000000  1.000000
                       1.000000  1.000000  1.000000  1.000000  0.000000  0.000000
                       0.000000  0.000000  0.000000  0.000000  0.000000  0.000000
                       0.000000  0.000000  0.000000  0.000000  0.000000  0.000000
                       0.000000  0.000000  0.000000  0.000000
                       1.000000  1.000000  1.000000  1.000000  1.000000  1.000000
                       1.000000  1.000000  1.000000  1.000000  1.000000  1.000000
                       1.000000  1.000000  1.000000  1.000000  1.000000  1.000000
                       1.000000  1.000000  1.000000  1.000000  0.000000  0.000000
                       0.000000  0.000000  0.000000  0.000000  0.000000  0.000000
                       0.000000  0.000000  0.000000  0.000000  0.000000  0.000000
                       0.000000  0.000000  0.000000  0.000000
                       1.000000  1.000000  1.000000  1.000000  1.000000  1.000000
                       1.000000  1.000000  1.000000  1.000000  1.000000  1.000000
                       1.000000  1.000000  1.000000  1.000000  1.000000  1.000000
                       1.000000  1.000000  1.000000  1.000000  0.000000  0.000000
                       0.000000  0.000000  0.000000  0.000000  0.000000  0.000000
                       0.000000  0.000000  0.000000  0.000000  0.000000  0.000000
                       0.000000  0.000000  0.000000  0.000000
                       1.000000  1.000000  1.000000  1.000000  1.000000  1.000000
                       1.000000  1.000000  1.000000  1.000000  1.000000  1.000000
                       1.000000  1.000000  1.000000  1.000000  1.000000  1.000000
                       1.000000  1.000000  1.000000  1.000000  0.000000  0.000000
                       0.000000  0.000000  0.000000  0.000000  0.000000  0.000000
                       0.000000  0.000000  0.000000  0.000000  0.000000  0.000000
                       0.000000  0.000000  0.000000  0.000000
                       1.000000  1.000000  1.000000  1.000000  1.000000  1.000000
                       1.000000  1.000000  1.000000  1.000000  1.000000  1.000000
                       1.000000  1.000000  1.000000  1.000000  1.000000  1.000000
                       1.000000  1.000000  1.000000  1.000000  0.000000  0.000000
                       0.000000  0.000000  0.000000  0.000000  0.000000  0.000000
                       0.000000  0.000000  0.000000  0.000000  0.000000  0.000000
                       0.000000  0.000000  0.000000  0.000000
                       1.000000  1.000000  1.000000  1.000000  1.000000  1.000000
                       1.000000  1.000000  1.000000  1.000000  1.000000  1.000000
                       1.000000  1.000000  1.000000  1.000000  1.000000  1.000000
                       1.000000  1.000000  1.000000  1.000000  0.000000  0.000000
                       0.000000  0.000000  0.000000  0.000000  0.000000  0.000000
                       0.000000  0.000000  0.000000  0.000000  0.000000  0.000000
                       0.000000  0.000000  0.000000  0.000000
                       1.000000  1.000000  1.000000  1.000000  1.000000  1.000000
                       1.000000  1.000000  1.000000  1.000000  1.000000  1.000000
                       1.000000  1.000000  1.000000  1.000000  1.000000  1.000000
                       1.000000  1.000000  1.000000  1.000000  0.000000  0.000000
                       0.000000  0.000000  0.000000  0.000000  0.000000  0.000000
                       0.000000  0.000000  0.000000  0.000000  0.000000  0.000000
                       0.000000  0.000000  0.000000  0.000000
                       1.000000  1.000000  1.000000  1.000000  1.000000  1.000000
                       1.000000  1.000000  1.000000  1.000000  1.000000  1.000000
                       1.000000  1.000000  1.000000  1.000000  1.000000  1.000000
                       1.000000  1.000000  1.000000  1.000000  0.000000  0.000000
                       0.000000  0.000000  0.000000  0.000000  0.000000  0.000000
                       0.000000  0.000000  0.000000  0.000000  0.000000  0.000000
                       0.000000  0.000000  0.000000  0.000000
                       1.000000  1.000000  1.000000  1.000000  1.000000  1.000000
                       1.000000  1.000000  1.000000  1.000000  1.000000  1.000000
                       1.000000  1.000000  1.000000  1.000000  1.000000  1.000000
                       1.000000  1.000000  1.000000  1.000000  0.000000  0.000000
                       0.000000  0.000000  0.000000  0.000000  0.000000  0.000000
                       0.000000  0.000000  0.000000  0.000000  0.000000  0.000000
                       0.000000  0.000000  0.000000  0.000000
                       1.000000  1.000000  1.000000  1.000000  1.000000  1.000000
                       1.000000  1.000000  1.000000  1.000000  1.000000  1.000000
                       1.000000  1.000000  1.000000  1.000000  1.000000  1.000000
                       1.000000  1.000000  1.000000  1.000000  0.000000  0.000000
                       0.000000  0.000000  0.000000  0.000000  0.000000  0.000000
                       0.000000  0.000000  0.000000  0.000000  0.000000  0.000000
                       0.000000  0.000000  0.000000  0.000000
                       1.000000  1.000000  1.000000  1.000000  1.000000  1.000000
                       1.000000  1.000000  1.000000  1.000000  1.000000  1.000000
                       1.000000  1.000000  1.000000  1.000000  1.000000  1.000000
                       1.000000  1.000000  1.000000  1.000000  0.000000  0.000000
                       0.000000  0.000000  0.000000  0.000000  0.000000  0.000000
                       0.000000  0.000000  0.000000  0.000000  0.000000  0.000000
                       0.000000  0.000000  0.000000  0.000000
                       1.000000  1.000000  1.000000  1.000000  1.000000  1.000000
                       1.000000  1.000000  1.000000  1.000000  1.000000  1.000000
                       1.000000  1.000000  1.000000  1.000000  1.000000  1.000000
                       1.000000  1.000000  1.000000  1.000000  0.000000  0.000000
                       0.000000  0.000000  0.000000  0.000000  0.000000  0.000000
                       0.000000  0.000000  0.000000  0.000000  0.000000  0.000000
                       0.000000  0.000000  0.000000  0.000000
                       1.000000  1.000000  1.000000  1.000000  1.000000  1.000000
                       1.000000  1.000000  1.000000  1.000000  1.000000  1.000000
                       1.000000  1.000000  1.000000  1.000000  1.000000  1.000000
                       1.000000  1.000000  1.000000  1.000000  0.000000  0.000000
                       0.000000  0.000000  0.000000  0.000000  0.000000  0.000000
                       0.000000  0.000000  0.000000  0.000000  0.000000  0.000000
                       0.000000  0.000000  0.000000  0.000000
                       1.000000  1.000000  1.000000  1.000000  1.000000  1.000000
                       1.000000  1.000000  1.000000  1.000000  1.000000  1.000000
                       1.000000  1.000000  1.000000  1.000000  1.000000  1.000000
                       1.000000  1.000000  1.000000  1.000000  0.000000  0.000000
                       0.000000  0.000000  0.000000  0.000000  0.000000  0.000000
                       0.000000  0.000000  0.000000  0.000000  0.000000  0.000000
                       0.000000  0.000000  0.000000  0.000000
                       1.000000  1.000000  1.000000  1.000000  1.000000  1.000000
                       1.000000  1.000000  1.000000  1.000000  1.000000  1.000000
                       1.000000  1.000000  1.000000  1.000000  1.000000  1.000000
                       1.000000  1.000000  1.000000  1.000000  0.000000  0.000000
                       0.000000  0.000000  0.000000  0.000000  0.000000  0.000000
                       0.000000  0.000000  0.000000  0.000000  0.000000  0.000000
                       0.000000  0.000000  0.000000  0.000000
                       1.000000  1.000000  1.000000  1.000000  1.000000  1.000000
                       1.000000  1.000000  1.000000  1.000000  1.000000  1.000000
                       1.000000  1.000000  1.000000  1.000000  1.000000  1.000000
                       1.000000  1.000000  1.000000  1.000000  0.000000  0.000000
                       0.000000  0.000000  0.000000  0.000000  0.000000  0.000000
                       0.000000  0.000000  0.000000  0.000000  0.000000  0.000000
                       0.000000  0.000000  0.000000  0.000000
                       1.000000  1.000000  1.000000  1.000000  1.000000  1.000000
                       1.000000  1.000000  1.000000  1.000000  1.000000  1.000000
                       1.000000  1.000000  1.000000  1.000000  1.000000  1.000000
                       1.000000  1.000000  1.000000  1.000000  0.000000  0.000000
                       0.000000  0.000000  0.000000  0.000000  0.000000  0.000000
                       0.000000  0.000000  0.000000  0.000000  0.000000  0.000000
                       0.000000  0.000000  0.000000  0.000000
                       1.000000  1.000000  1.000000  1.000000  1.000000  1.000000
                       1.000000  1.000000  1.000000  1.000000  1.000000  1.000000
                       1.000000  1.000000  1.000000  1.000000  1.000000  1.000000
                       1.000000  1.000000  1.000000  1.000000  0.000000  0.000000
                       0.000000  0.000000  0.000000  0.000000  0.000000  0.000000
                       0.000000  0.000000  0.000000  0.000000  0.000000  0.000000
                       0.000000  0.000000  0.000000  0.000000
                       1.000000  1.000000  1.000000  1.000000  1.000000  1.000000
                       1.000000  1.000000  1.000000  1.000000  1.000000  1.000000
                       1.000000  1.000000  1.000000  1.000000  1.000000  1.000000
                       1.000000  1.000000  1.000000  1.000000  0.000000  0.000000
                       0.000000  0.000000  0.000000  0.000000  0.000000  0.000000
                       0.000000  0.000000  0.000000  0.000000  0.000000  0.000000
                       0.000000  0.000000  0.000000  0.000000
                       1.000000  1.000000  1.000000  1.000000  1.000000  1.000000
                       1.000000  1.000000  1.000000  1.000000  1.000000  1.000000
                       1.000000  1.000000  1.000000  1.000000  1.000000  1.000000
                       1.000000  1.000000  1.000000  1.000000  0.000000  0.000000
                       0.000000  0.000000  0.000000  0.000000  0.000000  0.000000
                       0.000000  0.000000  0.000000  0.000000  0.000000  0.000000
                       0.000000  0.000000  0.000000  0.000000
                       1.000000  1.000000  1.000000  1.000000  1.000000  1.000000
                       1.000000  1.000000  1.000000  1.000000  1.000000  1.000000
                       1.000000  1.000000  1.000000  1.000000  1.000000  1.000000
                       1.000000  1.000000  1.000000  1.000000  0.000000  0.000000
                       0.000000  0.000000  0.000000  0.000000  0.000000  0.000000
                       0.000000  0.000000  0.000000  0.000000  0.000000  0.000000
                       0.000000  0.000000  0.000000  0.000000
                       1.000000  1.000000  1.000000  1.000000  1.000000  1.000000
                       1.000000  1.000000  1.000000  1.000000  1.000000  1.000000
                       1.000000  1.000000  1.000000  1.000000  1.000000  1.000000
                       1.000000  1.000000  1.000000  1.000000  0.000000  0.000000
                       0.000000  0.000000  0.000000  0.000000  0.000000  0.000000
                       0.000000  0.000000  0.000000  0.000000  0.000000  0.000000
                       0.000000  0.000000  0.000000  0.000000
                       1.000000  1.000000  1.000000  1.000000  1.000000  1.000000
                       1.000000  1.000000  1.000000  1.000000  1.000000  1.000000
                       1.000000  1.000000  1.000000  1.000000  1.000000  1.000000
                       1.000000  1.000000  1.000000  1.000000  0.000000  0.000000
                       0.000000  0.000000  0.000000  0.000000  0.000000  0.000000
                       0.000000  0.000000  0.000000  0.000000  0.000000  0.000000
                       0.000000  0.000000  0.000000  0.000000
                       1.000000  1.000000  1.000000  1.000000  1.000000  1.000000
                       1.000000  1.000000  1.000000  1.000000  1.000000  1.000000
                       1.000000  1.000000  1.000000  1.000000  1.000000  1.000000
                       1.000000  1.000000  1.000000  1.000000  0.000000  0.000000
                       0.000000  0.000000  0.000000  0.000000  0.000000  0.000000
                       0.000000  0.000000  0.000000  0.000000  0.000000  0.000000
                       0.000000  0.000000  0.000000  0.000000
                       1.000000  1.000000  1.000000  1.000000  1.000000  1.000000
                       1.000000  1.000000  1.000000  1.000000  1.000000  1.000000
                       1.000000  1.000000  1.000000  1.000000  1.000000  1.000000
                       1.000000  1.000000  1.000000  1.000000  0.000000  0.000000
                       0.000000  0.000000  0.000000  0.000000  0.000000  0.000000
                       0.000000  0.000000  0.000000  0.000000  0.000000  0.000000
                       0.000000  0.000000  0.000000  0.000000
                       1.000000  1.000000  1.000000  1.000000  1.000000  1.000000
                       1.000000  1.000000  1.000000  1.000000  1.000000  1.000000
                       1.000000  1.000000  1.000000  1.000000  1.000000  1.000000
                       1.000000  1.000000  1.000000  1.000000  0.000000  0.000000
                       0.000000  0.000000  0.000000  0.000000  0.000000  0.000000
                       0.000000  0.000000  0.000000  0.000000  0.000000  0.000000
                       0.000000  0.000000  0.000000  0.000000
                       1.000000  1.000000  1.000000  1.000000  1.000000  1.000000
                       1.000000  1.000000  1.000000  1.000000  1.000000  1.000000
                       1.000000  1.000000  1.000000  1.000000  1.000000  1.000000
                       1.000000  1.000000  1.000000  1.000000  0.000000  0.000000
                       0.000000  0.000000  0.000000  0.000000  0.000000  0.000000
                       0.000000  0.000000  0.000000  0.000000  0.000000  0.000000
                       0.000000  0.000000  0.000000  0.000000
                       1.000000  1.000000  1.000000  1.000000  1.000000  1.000000
                       1.000000  1.000000  1.000000  1.000000  1.000000  1.000000
                       1.000000  1.000000  1.000000  1.000000  1.000000  1.000000
                       1.000000  1.000000  1.000000  1.000000  0.000000  0.000000
                       0.000000  0.000000  0.000000  0.000000  0.000000  0.000000
                       0.000000  0.000000  0.000000  0.000000  0.000000  0.000000
                       0.000000  0.000000  0.000000  0.000000
                       1.000000  1.000000  1.000000  1.000000  1.000000  1.000000
                       1.000000  1.000000  1.000000  1.000000  1.000000  1.000000
                       1.000000  1.000000  1.000000  1.000000  1.000000  1.000000
                       1.000000  1.000000  1.000000  1.000000  0.000000  0.000000
                       0.000000  0.000000  0.000000  0.000000  0.000000  0.000000
                       0.000000  0.000000  0.000000  0.000000  0.000000  0.000000
                       0.000000  0.000000  0.000000  0.000000
                       1.000000  1.000000  1.000000  1.000000  1.000000  1.000000
                       1.000000  1.000000  1.000000  1.000000  1.000000  1.000000
                       1.000000  1.000000  1.000000  1.000000  1.000000  1.000000
                       1.000000  1.000000  1.000000  1.000000  0.000000  0.000000
                       0.000000  0.000000  0.000000  0.000000  0.000000  0.000000
                       0.000000  0.000000  0.000000  0.000000  0.000000  0.000000
                       0.000000  0.000000  0.000000  0.000000
                       1.000000  1.000000  1.000000  1.000000  1.000000  1.000000
                       1.000000  1.000000  1.000000  1.000000  1.000000  1.000000
                       1.000000  1.000000  1.000000  1.000000  1.000000  1.000000
                       1.000000  1.000000  1.000000  1.000000  0.000000  0.000000
                       0.000000  0.000000  0.000000  0.000000  0.000000  0.000000
                       0.000000  0.000000  0.000000  0.000000  0.000000  0.000000
                       0.000000  0.000000  0.000000  0.000000
                       prtocc : prtvol=0, do not print more k-points.
           occopt           7
        pawecutdg      4.50000000E+01 Hartree
        pawfatbnd1          0
        pawfatbnd2          0
        pawfatbnd3          2
        pawfatbnd4          0
        pawprtdos1          0
        pawprtdos2          0
        pawprtdos3          0
        pawprtdos4          2
           prtdos1          0
           prtdos2          0
           prtdos3          0
           prtdos4          3
            rprim      2.1584523900E+00  0.0000000000E+00  2.1584523900E+00
                       2.1584523900E+00  2.1584523900E+00  0.0000000000E+00
                       0.0000000000E+00  2.1584523900E+00  2.1584523900E+00
           shiftk      5.00000000E-01  5.00000000E-01  5.00000000E-01
          spgroup          79
           spinat      0.0000000000E+00  0.0000000000E+00  1.0000000000E+00
                       0.0000000000E+00  0.0000000000E+00  0.0000000000E+00
           symrel      1  0  0   0  1  0   0  0  1       0 -1  1   0 -1  0   1 -1  0
                       0  0  1  -1  0  1   0 -1  1       1 -1  0   1  0 -1   1  0  0
           tolvrs1     1.00000000E-03
           tolvrs2     0.00000000E+00
           tolvrs3     0.00000000E+00
           tolvrs4     0.00000000E+00
           tolwfr1     0.00000000E+00
           tolwfr2     1.00000000E-08
           tolwfr3     1.00000000E-08
           tolwfr4     1.00000000E-08
            typat      1  2
           useylm           1
              wtk1       0.01563    0.01563    0.01563    0.01563    0.01563    0.01563
                         0.01563    0.01563    0.01563    0.01563    0.01563    0.01563
                         0.01563    0.01563    0.01563    0.01563    0.01563    0.01563
                         0.01563    0.01563    0.01563    0.01563    0.01563    0.01563
                         0.01563    0.01563    0.01563    0.01563    0.01563    0.01563
                         0.01563    0.01563    0.01563    0.01563    0.01563    0.01563
                         0.01563    0.01563    0.01563    0.01563    0.01563    0.01563
                         0.01563    0.01563    0.01563    0.01563    0.01563    0.01563
                         0.01563    0.01563
              wtk2       1.00000    1.00000    1.00000    1.00000    1.00000    1.00000
                         1.00000    1.00000    1.00000    1.00000    1.00000    1.00000
                         1.00000    1.00000    1.00000    1.00000    1.00000    1.00000
                         1.00000    1.00000    1.00000    1.00000    1.00000    1.00000
                         1.00000    1.00000    1.00000    1.00000    1.00000    1.00000
                         1.00000    1.00000    1.00000    1.00000    1.00000    1.00000
                         1.00000    1.00000    1.00000    1.00000    1.00000    1.00000
                         1.00000    1.00000    1.00000    1.00000    1.00000    1.00000
                         1.00000    1.00000
              wtk3       1.00000    1.00000    1.00000    1.00000    1.00000    1.00000
                         1.00000    1.00000    1.00000    1.00000    1.00000    1.00000
                         1.00000    1.00000    1.00000    1.00000    1.00000    1.00000
                         1.00000    1.00000    1.00000    1.00000    1.00000    1.00000
                         1.00000    1.00000    1.00000    1.00000    1.00000    1.00000
                         1.00000    1.00000    1.00000    1.00000    1.00000    1.00000
                         1.00000    1.00000    1.00000    1.00000    1.00000    1.00000
                         1.00000    1.00000    1.00000    1.00000    1.00000    1.00000
                         1.00000    1.00000
              wtk4       0.01563    0.01563    0.01563    0.01563    0.01563    0.01563
                         0.01563    0.01563    0.01563    0.01563    0.01563    0.01563
                         0.01563    0.01563    0.01563    0.01563    0.01563    0.01563
                         0.01563    0.01563    0.01563    0.01563    0.01563    0.01563
                         0.01563    0.01563    0.01563    0.01563    0.01563    0.01563
                         0.01563    0.01563    0.01563    0.01563    0.01563    0.01563
                         0.01563    0.01563    0.01563    0.01563    0.01563    0.01563
                         0.01563    0.01563    0.01563    0.01563    0.01563    0.01563
                         0.01563    0.01563
                       outvars : Printing only first  50 k-points.
           xangst      0.0000000000E+00  0.0000000000E+00  0.0000000000E+00
                       0.0000000000E+00  0.0000000000E+00  2.1584523900E+00
            xcart      0.0000000000E+00  0.0000000000E+00  0.0000000000E+00
                       0.0000000000E+00  0.0000000000E+00  4.0788838880E+00
             xred      0.0000000000E+00  0.0000000000E+00  0.0000000000E+00
                       5.0000000000E-01 -5.0000000000E-01  5.0000000000E-01
            znucl       26.00000    8.00000

================================================================================

 chkinp: Checking input parameters for consistency, jdtset=   1.

 chkinp: Checking input parameters for consistency, jdtset=   2.

 chkinp: Checking input parameters for consistency, jdtset=   3.

 chkinp: Checking input parameters for consistency, jdtset=   4.

================================================================================
== DATASET  1 ==================================================================
-   nproc =   16

 Exchange-correlation functional for the present dataset will be:
  GGA: Perdew-Burke-Ernzerhof functional - ixc=11
 Citation for XC functional:
  J.P.Perdew, K.Burke, M.Ernzerhof, PRL 77, 3865 (1996)

 Real(R)+Recip(G) space primitive vectors, cartesian coordinates (Bohr,Bohr^-1):
 R(1)=  4.0788839  0.0000000  4.0788839  G(1)=  0.1225826 -0.1225826  0.1225826
 R(2)=  4.0788839  4.0788839  0.0000000  G(2)=  0.1225826  0.1225826 -0.1225826
 R(3)=  0.0000000  4.0788839  4.0788839  G(3)= -0.1225826  0.1225826  0.1225826
 Unit cell volume ucvol=  1.3572318E+02 bohr^3
 Angles (23,13,12)=  6.00000000E+01  6.00000000E+01  6.00000000E+01 degrees

 Coarse grid specifications (used for wave-functions):

 getcut: wavevector=  0.0000  0.0000  0.0000  ngfft=  24  24  24
         ecut(hartree)=     15.000   => boxcut(ratio)=   2.38640

 getcut : COMMENT -
  Note that boxcut > 2.2 ; recall that boxcut=Gcut(box)/Gcut(sphere) = 2
  is sufficient for exact treatment of convolution.
  Such a large boxcut is a waste : you could raise ecut
  e.g. ecut=   21.355983 Hartrees makes boxcut=2


 Fine grid specifications (used for densities):

 getcut: wavevector=  0.0000  0.0000  0.0000  ngfft=  36  36  36
         ecut(hartree)=     45.000   => boxcut(ratio)=   2.06669

--- Pseudopotential description ------------------------------------------------
- pspini: atom type   1  psp file is ./fe_pbe_v1.2_abinit.paw
- pspatm: opening atomic psp file    ./fe_pbe_v1.2_abinit.paw
- Fe - PAW data extracted from US-psp (D.Vanderbilt) - generated by USpp2Abinit v2.4.0
- 26.00000  16.00000  20140203                znucl, zion, pspdat
    7   11    2    0       584   0.00000      pspcod,pspxc,lmax,lloc,mmax,r2well
 Pseudopotential format is: paw4
 basis_size (lnmax)=  6 (lmn_size= 18), orbitals=   0   0   1   1   2   2
 Spheres core radius: rc_sph= 1.71336280
 4 radial meshes are used:
  - mesh 1: r(i)=AA*[exp(BB*(i-1))-1], size= 584 , AA= 0.95337E-04 BB= 0.16949E-01
  - mesh 2: r(i)=AA*[exp(BB*(i-1))-1], size= 580 , AA= 0.95337E-04 BB= 0.16949E-01
  - mesh 3: r(i)=AA*[exp(BB*(i-1))-1], size= 683 , AA= 0.95337E-04 BB= 0.16949E-01
  - mesh 4: r(i)=AA*[exp(BB*(i-1))-1], size= 695 , AA= 0.95337E-04 BB= 0.16949E-01
 Shapefunction is BESSEL type: shapef(r,l)=aa(1,l)*jl(q(1,l)*r)+aa(2,l)*jl(q(2,l)*r)
 Radius for shape functions = sphere core radius
 Radial grid used for partial waves is grid 1
 Radial grid used for projectors is grid  2
 Radial grid used for (t)core density is grid 1
 Radial grid used for Vloc is grid 3
 Radial grid used for pseudo valence density is grid 4
 Compensation charge density is taken into account in XC energy/potential
 pspatm: atomic psp has been read  and splines computed

- pspini: atom type   2  psp file is ./o_pbe_v1.2_abinit.paw
- pspatm: opening atomic psp file    ./o_pbe_v1.2_abinit.paw
- O - PAW data extracted from US-psp (D.Vanderbilt) - generated by USpp2Abinit v2.4.0
-  8.00000   6.00000  20140203                znucl, zion, pspdat
    7   11    2    0       494   0.00000      pspcod,pspxc,lmax,lloc,mmax,r2well
 Pseudopotential format is: paw4
 basis_size (lnmax)=  5 (lmn_size= 13), orbitals=   0   0   1   1   2
 Spheres core radius: rc_sph= 1.21105161
 5 radial meshes are used:
  - mesh 1: r(i)=AA*[exp(BB*(i-1))-1], size= 494 , AA= 0.30984E-03 BB= 0.16949E-01
  - mesh 2: r(i)=AA*[exp(BB*(i-1))-1], size= 490 , AA= 0.30984E-03 BB= 0.16949E-01
  - mesh 3: r(i)=AA*[exp(BB*(i-1))-1], size= 506 , AA= 0.30984E-03 BB= 0.16949E-01
  - mesh 4: r(i)=AA*[exp(BB*(i-1))-1], size= 613 , AA= 0.30984E-03 BB= 0.16949E-01
  - mesh 5: r(i)=AA*[exp(BB*(i-1))-1], size= 623 , AA= 0.30984E-03 BB= 0.16949E-01
 Shapefunction is BESSEL type: shapef(r,l)=aa(1,l)*jl(q(1,l)*r)+aa(2,l)*jl(q(2,l)*r)
 Radius for shape functions = sphere core radius
 Radial grid used for partial waves is grid 1
 Radial grid used for projectors is grid  2
 Radial grid used for (t)core density is grid 3
 Radial grid used for Vloc is grid 4
 Radial grid used for pseudo valence density is grid 5
 Compensation charge density is taken into account in XC energy/potential
 pspatm: atomic psp has been read  and splines computed

   6.08163965E+02                                ecore*ucvol(ha*bohr**3)
--------------------------------------------------------------------------------

_setup2: Arith. and geom. avg. npw (full set) are     376.344     376.313

================================================================================

     iter   Etot(hartree)      deltaE(h)  residm     nres2
 ETOT  1  -140.85160071157    -1.409E+02 2.429E+00 3.079E+02
 ETOT  2  -143.63928958935    -2.788E+00 4.116E-02 1.045E+03
 ETOT  3  -140.49628388783     3.143E+00 1.220E+00 2.331E+01
 ETOT  4  -140.52861883955    -3.233E-02 1.383E-02 2.594E+01
 ETOT  5  -140.52962910740    -1.010E-03 5.882E-03 2.601E+01
 ETOT  6  -140.53689901532    -7.270E-03 3.755E-03 1.952E+01
 ETOT  7  -140.53593753543     9.615E-04 1.458E-03 2.014E+01
 ETOT  8  -140.53901526295    -3.078E-03 1.332E-03 1.566E+01
 ETOT  9  -140.56132259370    -2.231E-02 5.577E-03 2.379E+00
 ETOT 10  -140.55556443990     5.758E-03 3.274E-03 1.393E+01
 ETOT 11  -140.55867319500    -3.109E-03 1.376E-04 8.674E+00
 ETOT 12  -140.52584859937     3.282E-02 1.354E-02 1.973E+01
 ETOT 13  -140.55047549121    -2.463E-02 4.315E-03 1.075E+01
 ETOT 14  -140.56164285917    -1.117E-02 1.416E-03 2.641E-01
 ETOT 15  -140.55997151159     1.671E-03 1.353E-04 2.757E+00
 ETOT 16  -140.56070176844    -7.303E-04 1.899E-05 1.632E+00
 ETOT 17  -140.56172817791    -1.026E-03 1.362E-04 2.646E-03
 ETOT 18  -140.56173366940    -5.491E-06 7.499E-06 6.655E-04

 At SCF step   18       nres2   =  6.66E-04 < tolvrs=  1.00E-03 =>converged.

 Cartesian components of stress tensor (hartree/bohr^3)
  sigma(1 1)=  3.78417342E-04  sigma(3 2)=  0.00000000E+00
  sigma(2 2)=  3.78417342E-04  sigma(3 1)=  0.00000000E+00
  sigma(3 3)=  3.78436416E-04  sigma(2 1)=  0.00000000E+00

 Integrated electronic and magnetization densities in atomic spheres:
 ---------------------------------------------------------------------
 Note:      this is a rough approximation of local magnetic moments
 Atom   Radius      Total density     mag(x)      mag(y)      mag(z)
    1   1.71336       13.185182     -0.000000   -0.000000    3.346944
    2   1.21105        3.746218      0.000000    0.000000    0.251294
 ---------------------------------------------------------------------
 Total magnetization (spheres)      -0.000000    0.000000    3.598238
 Total magnetization (exact)        -0.000000    0.000000    3.999888

 PAW TEST:
 ==== Compensation charge inside spheres ============
 The following values must be close to each other ...
 Compensation charge over spherical meshes =      7.677253926887028
 Compensation charge over fine fft grid    =      7.675483355180913

 ==== Results concerning PAW augmentation regions ====

 Total pseudopotential strength Dij (hartree):
 Atom #  1 - Component up-up
   === REAL PART:
  -1.05105   0.17869   0.00000  -0.00000   0.00000   0.00000   0.00000   0.00000   0.00000   0.00000  -0.00000   0.00000 ...
   0.17869   0.04709   0.00000   0.00000   0.00000   0.00000  -0.00000   0.00000   0.00000   0.00000   0.00000   0.00000 ...
   0.00000   0.00000  -1.62643   0.00000   0.00000   0.16911   0.00000   0.00000   0.00000  -0.00000   0.00000   0.00000 ...
  -0.00000   0.00000   0.00000  -1.62643   0.00000   0.00000   0.16911   0.00000   0.00000   0.00000  -0.00000   0.00000 ...
   0.00000   0.00000   0.00000   0.00000  -1.62643   0.00000   0.00000   0.16911   0.00000   0.00000   0.00000  -0.00000 ...
   0.00000   0.00000   0.16911   0.00000   0.00000   0.04521   0.00000   0.00000   0.00000   0.00000   0.00000   0.00000 ...
   0.00000  -0.00000   0.00000   0.16911   0.00000   0.00000   0.04521   0.00000   0.00000   0.00000   0.00000   0.00000 ...
   0.00000   0.00000   0.00000   0.00000   0.16911   0.00000   0.00000   0.04521   0.00000   0.00000   0.00000   0.00000 ...
   0.00000   0.00000   0.00000   0.00000   0.00000   0.00000   0.00000   0.00000  -0.23511   0.00000   0.00000   0.00000 ...
   0.00000   0.00000  -0.00000   0.00000   0.00000   0.00000   0.00000   0.00000   0.00000  -0.23511   0.00000   0.00000 ...
  -0.00000   0.00000   0.00000  -0.00000   0.00000   0.00000   0.00000   0.00000   0.00000   0.00000  -0.24071   0.00000 ...
   0.00000   0.00000   0.00000   0.00000  -0.00000   0.00000   0.00000   0.00000   0.00000   0.00000   0.00000  -0.23511 ...
   ...  only 12  components have been written...
   === IMAGINARY PART:
  -0.00000  -0.00000  -0.00000  -0.00000  -0.00000  -0.00000  -0.00000  -0.00000  -0.00000  -0.00000  -0.00000  -0.00000 ...
   0.00000  -0.00000  -0.00000  -0.00000  -0.00000  -0.00000  -0.00000  -0.00000  -0.00000  -0.00000  -0.00000  -0.00000 ...
   0.00000   0.00000  -0.00000  -0.00000  -0.00000  -0.00000  -0.00000  -0.00000  -0.00000  -0.00000  -0.00000  -0.00000 ...
   0.00000   0.00000   0.00000  -0.00000  -0.00000  -0.00000  -0.00000  -0.00000  -0.00000  -0.00000  -0.00000  -0.00000 ...
   0.00000   0.00000   0.00000   0.00000  -0.00000  -0.00000  -0.00000  -0.00000  -0.00000  -0.00000  -0.00000  -0.00000 ...
   0.00000   0.00000   0.00000   0.00000   0.00000  -0.00000  -0.00000  -0.00000  -0.00000  -0.00000  -0.00000  -0.00000 ...
   0.00000   0.00000   0.00000   0.00000   0.00000   0.00000  -0.00000  -0.00000  -0.00000  -0.00000  -0.00000  -0.00000 ...
   0.00000   0.00000   0.00000   0.00000   0.00000   0.00000   0.00000  -0.00000  -0.00000  -0.00000  -0.00000  -0.00000 ...
   0.00000   0.00000   0.00000   0.00000   0.00000   0.00000   0.00000   0.00000  -0.00000  -0.00000  -0.00000  -0.00000 ...
   0.00000   0.00000   0.00000   0.00000   0.00000   0.00000   0.00000   0.00000   0.00000  -0.00000  -0.00000  -0.00000 ...
   0.00000   0.00000   0.00000   0.00000   0.00000   0.00000   0.00000   0.00000   0.00000   0.00000  -0.00000  -0.00000 ...
   0.00000   0.00000   0.00000   0.00000   0.00000   0.00000   0.00000   0.00000   0.00000   0.00000   0.00000  -0.00000 ...
   ...  only 12  components have been written...
 Atom #  1 - Component dwn-dwn
   === REAL PART:
  -1.03031   0.16880   0.00000   0.00000   0.00000   0.00000  -0.00000   0.00000   0.00000   0.00000   0.00000   0.00000 ...
   0.16880   0.05018   0.00000  -0.00000   0.00000   0.00000  -0.00000   0.00000   0.00000   0.00000  -0.00000   0.00000 ...
   0.00000   0.00000  -1.53603   0.00000   0.00000   0.14708   0.00000   0.00000   0.00000   0.00000   0.00000   0.00000 ...
   0.00000  -0.00000   0.00000  -1.53603   0.00000   0.00000   0.14708   0.00000   0.00000   0.00000   0.00000   0.00000 ...
   0.00000   0.00000   0.00000   0.00000  -1.53603   0.00000   0.00000   0.14708   0.00000   0.00000   0.00000   0.00000 ...
   0.00000   0.00000   0.14708   0.00000   0.00000   0.04998   0.00000   0.00000   0.00000  -0.00000   0.00000   0.00000 ...
  -0.00000  -0.00000   0.00000   0.14708   0.00000   0.00000   0.04998   0.00000   0.00000   0.00000  -0.00000   0.00000 ...
   0.00000   0.00000   0.00000   0.00000   0.14708   0.00000   0.00000   0.04998   0.00000   0.00000   0.00000  -0.00000 ...
   0.00000   0.00000   0.00000   0.00000   0.00000   0.00000   0.00000   0.00000  -0.14084   0.00000   0.00000   0.00000 ...
   0.00000   0.00000   0.00000   0.00000   0.00000  -0.00000   0.00000   0.00000   0.00000  -0.14084   0.00000   0.00000 ...
   0.00000  -0.00000   0.00000   0.00000   0.00000   0.00000  -0.00000   0.00000   0.00000   0.00000  -0.13539   0.00000 ...
   0.00000   0.00000   0.00000   0.00000   0.00000   0.00000   0.00000  -0.00000   0.00000   0.00000   0.00000  -0.14084 ...
   ...  only 12  components have been written...
   === IMAGINARY PART:
  -0.00000  -0.00000  -0.00000  -0.00000  -0.00000  -0.00000  -0.00000  -0.00000  -0.00000  -0.00000  -0.00000  -0.00000 ...
   0.00000  -0.00000  -0.00000  -0.00000  -0.00000  -0.00000  -0.00000  -0.00000  -0.00000  -0.00000  -0.00000  -0.00000 ...
   0.00000   0.00000  -0.00000  -0.00000  -0.00000  -0.00000  -0.00000  -0.00000  -0.00000  -0.00000  -0.00000  -0.00000 ...
   0.00000   0.00000   0.00000  -0.00000  -0.00000  -0.00000  -0.00000  -0.00000  -0.00000  -0.00000  -0.00000  -0.00000 ...
   0.00000   0.00000   0.00000   0.00000  -0.00000  -0.00000  -0.00000  -0.00000  -0.00000  -0.00000  -0.00000  -0.00000 ...
   0.00000   0.00000   0.00000   0.00000   0.00000  -0.00000  -0.00000  -0.00000  -0.00000  -0.00000  -0.00000  -0.00000 ...
   0.00000   0.00000   0.00000   0.00000   0.00000   0.00000  -0.00000  -0.00000  -0.00000  -0.00000  -0.00000  -0.00000 ...
   0.00000   0.00000   0.00000   0.00000   0.00000   0.00000   0.00000  -0.00000  -0.00000  -0.00000  -0.00000  -0.00000 ...
   0.00000   0.00000   0.00000   0.00000   0.00000   0.00000   0.00000   0.00000  -0.00000  -0.00000  -0.00000  -0.00000 ...
   0.00000   0.00000   0.00000   0.00000   0.00000   0.00000   0.00000   0.00000   0.00000  -0.00000  -0.00000  -0.00000 ...
   0.00000   0.00000   0.00000   0.00000   0.00000   0.00000   0.00000   0.00000   0.00000   0.00000  -0.00000  -0.00000 ...
   0.00000   0.00000   0.00000   0.00000   0.00000   0.00000   0.00000   0.00000   0.00000   0.00000   0.00000  -0.00000 ...
   ...  only 12  components have been written...
 Atom #  1 - Component up-dwn
   === REAL PART:
   0.00000   0.00000   0.00000   0.00000   0.00000  -0.00000   0.00000  -0.00000   0.00000   0.00000   0.00000   0.00000 ...
   0.00000   0.00000  -0.00000   0.00000  -0.00000   0.00000   0.00000   0.00000   0.00000  -0.00000   0.00000  -0.00000 ...
   0.00000  -0.00000   0.00000   0.00000   0.00000   0.00000  -0.00000   0.00000   0.00000   0.00000  -0.00000   0.00000 ...
   0.00000   0.00000   0.00000   0.00000   0.00000  -0.00000   0.00000  -0.00000   0.00000   0.00000   0.00000   0.00000 ...
   0.00000  -0.00000   0.00000   0.00000   0.00000   0.00000  -0.00000   0.00000   0.00000   0.00000  -0.00000   0.00000 ...
  -0.00000   0.00000   0.00000  -0.00000   0.00000   0.00000   0.00000   0.00000  -0.00000   0.00000   0.00000   0.00000 ...
   0.00000   0.00000  -0.00000   0.00000  -0.00000   0.00000   0.00000   0.00000   0.00000  -0.00000   0.00000  -0.00000 ...
  -0.00000   0.00000   0.00000  -0.00000   0.00000   0.00000   0.00000   0.00000  -0.00000   0.00000   0.00000   0.00000 ...
   0.00000   0.00000   0.00000   0.00000   0.00000  -0.00000   0.00000  -0.00000   0.00000   0.00000   0.00000   0.00000 ...
   0.00000  -0.00000   0.00000   0.00000   0.00000   0.00000  -0.00000   0.00000   0.00000   0.00000   0.00000   0.00000 ...
   0.00000   0.00000  -0.00000   0.00000  -0.00000   0.00000   0.00000   0.00000   0.00000   0.00000   0.00000   0.00000 ...
   0.00000  -0.00000   0.00000   0.00000   0.00000   0.00000  -0.00000   0.00000   0.00000   0.00000   0.00000   0.00000 ...
   ...  only 12  components have been written...
   === IMAGINARY PART:
  -0.00000  -0.00000  -0.00000  -0.00000   0.00000   0.00000  -0.00000  -0.00000  -0.00000  -0.00000  -0.00000   0.00000 ...
   0.00000  -0.00000   0.00000  -0.00000  -0.00000  -0.00000  -0.00000   0.00000  -0.00000   0.00000  -0.00000  -0.00000 ...
  -0.00000   0.00000  -0.00000  -0.00000  -0.00000  -0.00000   0.00000  -0.00000   0.00000  -0.00000   0.00000  -0.00000 ...
   0.00000   0.00000  -0.00000  -0.00000   0.00000   0.00000  -0.00000  -0.00000  -0.00000  -0.00000  -0.00000   0.00000 ...
   0.00000  -0.00000   0.00000   0.00000  -0.00000  -0.00000  -0.00000  -0.00000  -0.00000  -0.00000  -0.00000  -0.00000 ...
   0.00000  -0.00000   0.00000   0.00000   0.00000  -0.00000  -0.00000  -0.00000  -0.00000  -0.00000  -0.00000  -0.00000 ...
   0.00000   0.00000   0.00000   0.00000  -0.00000   0.00000  -0.00000   0.00000  -0.00000   0.00000  -0.00000  -0.00000 ...
  -0.00000   0.00000   0.00000  -0.00000   0.00000   0.00000   0.00000  -0.00000   0.00000  -0.00000   0.00000  -0.00000 ...
   0.00000   0.00000   0.00000   0.00000  -0.00000  -0.00000   0.00000   0.00000  -0.00000   0.00000  -0.00000  -0.00000 ...
  -0.00000   0.00000   0.00000  -0.00000   0.00000   0.00000   0.00000   0.00000   0.00000  -0.00000  -0.00000  -0.00000 ...
   0.00000   0.00000   0.00000   0.00000  -0.00000  -0.00000   0.00000   0.00000   0.00000  -0.00000  -0.00000   0.00000 ...
   0.00000  -0.00000   0.00000   0.00000   0.00000   0.00000  -0.00000   0.00000  -0.00000   0.00000   0.00000  -0.00000 ...
   ...  only 12  components have been written...
 Atom #  1 - Component dwn-up
   === REAL PART:
   0.00000   0.00000   0.00000   0.00000   0.00000  -0.00000   0.00000  -0.00000   0.00000   0.00000   0.00000   0.00000 ...
   0.00000   0.00000  -0.00000   0.00000  -0.00000   0.00000   0.00000   0.00000   0.00000  -0.00000   0.00000  -0.00000 ...
   0.00000  -0.00000   0.00000   0.00000   0.00000   0.00000  -0.00000   0.00000   0.00000   0.00000  -0.00000   0.00000 ...
   0.00000   0.00000   0.00000   0.00000   0.00000  -0.00000   0.00000  -0.00000   0.00000   0.00000   0.00000   0.00000 ...
   0.00000  -0.00000   0.00000   0.00000   0.00000   0.00000  -0.00000   0.00000   0.00000   0.00000  -0.00000   0.00000 ...
  -0.00000   0.00000   0.00000  -0.00000   0.00000   0.00000   0.00000   0.00000  -0.00000   0.00000   0.00000   0.00000 ...
   0.00000   0.00000  -0.00000   0.00000  -0.00000   0.00000   0.00000   0.00000   0.00000  -0.00000   0.00000  -0.00000 ...
  -0.00000   0.00000   0.00000  -0.00000   0.00000   0.00000   0.00000   0.00000  -0.00000   0.00000   0.00000   0.00000 ...
   0.00000   0.00000   0.00000   0.00000   0.00000  -0.00000   0.00000  -0.00000   0.00000   0.00000   0.00000   0.00000 ...
   0.00000  -0.00000   0.00000   0.00000   0.00000   0.00000  -0.00000   0.00000   0.00000   0.00000   0.00000   0.00000 ...
   0.00000   0.00000  -0.00000   0.00000  -0.00000   0.00000   0.00000   0.00000   0.00000   0.00000   0.00000   0.00000 ...
   0.00000  -0.00000   0.00000   0.00000   0.00000   0.00000  -0.00000   0.00000   0.00000   0.00000   0.00000   0.00000 ...
   ...  only 12  components have been written...
   === IMAGINARY PART:
  -0.00000  -0.00000   0.00000  -0.00000  -0.00000  -0.00000  -0.00000   0.00000  -0.00000   0.00000  -0.00000  -0.00000 ...
   0.00000  -0.00000  -0.00000  -0.00000   0.00000   0.00000  -0.00000  -0.00000  -0.00000  -0.00000  -0.00000   0.00000 ...
   0.00000  -0.00000  -0.00000   0.00000  -0.00000  -0.00000  -0.00000  -0.00000  -0.00000  -0.00000  -0.00000  -0.00000 ...
   0.00000   0.00000   0.00000  -0.00000  -0.00000  -0.00000  -0.00000   0.00000  -0.00000   0.00000  -0.00000  -0.00000 ...
  -0.00000   0.00000   0.00000  -0.00000  -0.00000  -0.00000   0.00000  -0.00000   0.00000  -0.00000   0.00000  -0.00000 ...
  -0.00000   0.00000   0.00000  -0.00000   0.00000  -0.00000  -0.00000  -0.00000   0.00000  -0.00000   0.00000  -0.00000 ...
   0.00000   0.00000  -0.00000   0.00000   0.00000   0.00000  -0.00000  -0.00000  -0.00000  -0.00000  -0.00000   0.00000 ...
   0.00000  -0.00000   0.00000   0.00000   0.00000   0.00000  -0.00000  -0.00000  -0.00000  -0.00000  -0.00000  -0.00000 ...
   0.00000   0.00000  -0.00000   0.00000   0.00000   0.00000   0.00000  -0.00000  -0.00000  -0.00000  -0.00000   0.00000 ...
   0.00000  -0.00000   0.00000   0.00000   0.00000   0.00000  -0.00000   0.00000  -0.00000  -0.00000   0.00000  -0.00000 ...
   0.00000   0.00000  -0.00000   0.00000   0.00000   0.00000   0.00000  -0.00000   0.00000   0.00000  -0.00000  -0.00000 ...
  -0.00000   0.00000   0.00000  -0.00000   0.00000   0.00000   0.00000   0.00000   0.00000   0.00000  -0.00000  -0.00000 ...
   ...  only 12  components have been written...
 Atom #  2 - Component up-up
   === REAL PART:
   0.79045   1.69345   0.00000  -0.00000   0.00000   0.00000  -0.00000   0.00000   0.00000   0.00000  -0.00000   0.00000 ...
   1.69345   3.62073   0.00000  -0.00000   0.00000   0.00000  -0.00000   0.00000   0.00000   0.00000  -0.00000   0.00000 ...
   0.00000   0.00000  -0.24871   0.00000   0.00000  -0.37097   0.00000   0.00000   0.00000  -0.00000   0.00000   0.00000 ...
  -0.00000  -0.00000   0.00000  -0.24871   0.00000   0.00000  -0.37097   0.00000   0.00000   0.00000  -0.00000   0.00000 ...
   0.00000   0.00000   0.00000   0.00000  -0.24871   0.00000   0.00000  -0.37097   0.00000   0.00000   0.00000  -0.00000 ...
   0.00000   0.00000  -0.37097   0.00000   0.00000  -0.53280   0.00000   0.00000   0.00000  -0.00000   0.00000   0.00000 ...
  -0.00000  -0.00000   0.00000  -0.37097   0.00000   0.00000  -0.53280   0.00000   0.00000   0.00000  -0.00000   0.00000 ...
   0.00000   0.00000   0.00000   0.00000  -0.37097   0.00000   0.00000  -0.53280   0.00000   0.00000   0.00000  -0.00000 ...
   0.00000   0.00000   0.00000   0.00000   0.00000   0.00000   0.00000   0.00000   0.01407   0.00000   0.00000   0.00000 ...
   0.00000   0.00000  -0.00000   0.00000   0.00000  -0.00000   0.00000   0.00000   0.00000   0.01407   0.00000   0.00000 ...
  -0.00000  -0.00000   0.00000  -0.00000   0.00000   0.00000  -0.00000   0.00000   0.00000   0.00000   0.01406   0.00000 ...
   0.00000   0.00000   0.00000   0.00000  -0.00000   0.00000   0.00000  -0.00000   0.00000   0.00000   0.00000   0.01407 ...
   ...  only 12  components have been written...
   === IMAGINARY PART:
  -0.00000  -0.00000  -0.00000  -0.00000  -0.00000  -0.00000  -0.00000  -0.00000  -0.00000  -0.00000  -0.00000  -0.00000 ...
   0.00000  -0.00000  -0.00000  -0.00000  -0.00000  -0.00000  -0.00000  -0.00000  -0.00000  -0.00000  -0.00000  -0.00000 ...
   0.00000   0.00000  -0.00000  -0.00000  -0.00000  -0.00000  -0.00000  -0.00000  -0.00000  -0.00000  -0.00000  -0.00000 ...
   0.00000   0.00000   0.00000  -0.00000  -0.00000  -0.00000  -0.00000  -0.00000  -0.00000  -0.00000  -0.00000  -0.00000 ...
   0.00000   0.00000   0.00000   0.00000  -0.00000  -0.00000  -0.00000  -0.00000  -0.00000  -0.00000  -0.00000  -0.00000 ...
   0.00000   0.00000   0.00000   0.00000   0.00000  -0.00000  -0.00000  -0.00000  -0.00000  -0.00000  -0.00000  -0.00000 ...
   0.00000   0.00000   0.00000   0.00000   0.00000   0.00000  -0.00000  -0.00000  -0.00000  -0.00000  -0.00000  -0.00000 ...
   0.00000   0.00000   0.00000   0.00000   0.00000   0.00000   0.00000  -0.00000  -0.00000  -0.00000  -0.00000  -0.00000 ...
   0.00000   0.00000   0.00000   0.00000   0.00000   0.00000   0.00000   0.00000  -0.00000  -0.00000  -0.00000  -0.00000 ...
   0.00000   0.00000   0.00000   0.00000   0.00000   0.00000   0.00000   0.00000   0.00000  -0.00000  -0.00000  -0.00000 ...
   0.00000   0.00000   0.00000   0.00000   0.00000   0.00000   0.00000   0.00000   0.00000   0.00000  -0.00000  -0.00000 ...
   0.00000   0.00000   0.00000   0.00000   0.00000   0.00000   0.00000   0.00000   0.00000   0.00000   0.00000  -0.00000 ...
   ...  only 12  components have been written...
 Atom #  2 - Component dwn-dwn
   === REAL PART:
   0.78592   1.68320   0.00000   0.00000   0.00000   0.00000   0.00000   0.00000   0.00000   0.00000  -0.00000   0.00000 ...
   1.68320   3.59756   0.00000   0.00000   0.00000   0.00000   0.00000   0.00000   0.00000   0.00000  -0.00000   0.00000 ...
   0.00000   0.00000  -0.24289   0.00000   0.00000  -0.36095   0.00000   0.00000   0.00000   0.00000   0.00000   0.00000 ...
   0.00000   0.00000   0.00000  -0.24289   0.00000   0.00000  -0.36095   0.00000   0.00000   0.00000   0.00000   0.00000 ...
   0.00000   0.00000   0.00000   0.00000  -0.24289   0.00000   0.00000  -0.36095   0.00000   0.00000   0.00000   0.00000 ...
   0.00000   0.00000  -0.36095   0.00000   0.00000  -0.51555   0.00000   0.00000   0.00000   0.00000   0.00000   0.00000 ...
[...]
                       1.000000  1.000000  1.000000  1.000000  1.000000  1.000000
                       1.000000  1.000000  1.000000  1.000000  1.000000  1.000000
                       1.000000  1.000000  1.000000  1.000000  0.001340  0.000259
                       0.000000  0.000000  0.000000  0.000000  0.000000  0.000000
                       0.000000  0.000000  0.000000  0.000000  0.000000  0.000000
                       0.000000  0.000000  0.000000  0.000000
                       1.000000  1.000000  1.000000  1.000000  1.000000  1.000000
                       1.000000  1.000000  1.000000  1.000000  1.000000  1.000000
                       1.000000  1.000000  1.000000  1.000000  1.000000  1.000000
                       1.000000  1.000000  0.999996  0.960288  0.004323  0.000733
                       0.000000  0.000000  0.000000  0.000000  0.000000  0.000000
                       0.000000  0.000000  0.000000  0.000000  0.000000  0.000000
                       0.000000  0.000000  0.000000  0.000000
                       1.000000  1.000000  1.000000  1.000000  1.000000  1.000000
                       1.000000  1.000000  1.000000  1.000000  1.000000  1.000000
                       1.000000  1.000000  1.000000  1.000000  1.000000  1.000000
                       1.000000  1.000000  0.999989  0.452217  0.013117  0.002041
                       0.000000  0.000000  0.000000  0.000000  0.000000  0.000000
                       0.000000  0.000000  0.000000  0.000000  0.000000  0.000000
                       0.000000  0.000000  0.000000  0.000000
                       1.000000  1.000000  1.000000  1.000000  1.000000  1.000000
                       1.000000  1.000000  1.000000  1.000000  1.000000  1.000000
                       1.000000  1.000000  1.000000  1.000000  1.000000  1.000000
                       1.000000  1.000000  1.000000  0.995050  0.014831  0.000028
                       0.000000  0.000000  0.000000  0.000000  0.000000  0.000000
                       0.000000  0.000000  0.000000  0.000000  0.000000  0.000000
                       0.000000  0.000000  0.000000  0.000000
                       1.000000  1.000000  1.000000  1.000000  1.000000  1.000000
                       1.000000  1.000000  1.000000  1.000000  1.000000  1.000000
                       1.000000  1.000000  1.000000  1.000000  1.000000  1.000000
                       1.000000  1.000000  1.000000  0.995064  0.014832  0.000028
                       0.000000  0.000000  0.000000  0.000000  0.000000  0.000000
                       0.000000  0.000000  0.000000  0.000000  0.000000  0.000000
                       0.000000  0.000000  0.000000  0.000000
                       1.000000  1.000000  1.000000  1.000000  1.000000  1.000000
                       1.000000  1.000000  1.000000  1.000000  1.000000  1.000000
                       1.000000  1.000000  1.000000  1.000000  1.000000  1.000000
                       1.000000  1.000000  1.000000  0.999995  0.300868  0.266177
                       0.000025  0.000000  0.000000  0.000000  0.000000  0.000000
                       0.000000  0.000000  0.000000  0.000000  0.000000  0.000000
                       0.000000  0.000000  0.000000  0.000000
                       1.000000  1.000000  1.000000  1.000000  1.000000  1.000000
                       1.000000  1.000000  1.000000  1.000000  1.000000  1.000000
                       1.000000  1.000000  1.000000  1.000000  1.000000  1.000000
                       1.000000  1.000000  0.999791  0.710631  0.610257  0.017146
                       0.000000  0.000000  0.000000  0.000000  0.000000  0.000000
                       0.000000  0.000000  0.000000  0.000000  0.000000  0.000000
                       0.000000  0.000000  0.000000  0.000000
                       1.000000  1.000000  1.000000  1.000000  1.000000  1.000000
                       1.000000  1.000000  1.000000  1.000000  1.000000  1.000000
                       1.000000  1.000000  1.000000  1.000000  1.000000  1.000000
                       1.000000  1.000000  0.999996  0.960272  0.004324  0.000733
                       0.000000  0.000000  0.000000  0.000000  0.000000  0.000000
                       0.000000  0.000000  0.000000  0.000000  0.000000  0.000000
                       0.000000  0.000000  0.000000  0.000000
                       1.000000  1.000000  1.000000  1.000000  1.000000  1.000000
                       1.000000  1.000000  1.000000  1.000000  1.000000  1.000000
                       1.000000  1.000000  1.000000  1.000000  1.000000  1.000000
                       1.000000  1.000000  1.000000  0.995063  0.014829  0.000028
                       0.000000  0.000000  0.000000  0.000000  0.000000  0.000000
                       0.000000  0.000000  0.000000  0.000000  0.000000  0.000000
                       0.000000  0.000000  0.000000  0.000000
                       1.000000  1.000000  1.000000  1.000000  1.000000  1.000000
                       1.000000  1.000000  1.000000  1.000000  1.000000  1.000000
                       1.000000  1.000000  1.000000  1.000000  1.000000  1.000000
                       1.000000  1.000000  1.000000  0.995064  0.014832  0.000028
                       0.000000  0.000000  0.000000  0.000000  0.000000  0.000000
                       0.000000  0.000000  0.000000  0.000000  0.000000  0.000000
                       0.000000  0.000000  0.000000  0.000000
                       1.000000  1.000000  1.000000  1.000000  1.000000  1.000000
                       1.000000  1.000000  1.000000  1.000000  1.000000  1.000000
                       1.000000  1.000000  1.000000  1.000000  1.000000  1.000000
                       1.000000  1.000000  0.999996  0.960287  0.004320  0.000732
                       0.000000  0.000000  0.000000  0.000000  0.000000  0.000000
                       0.000000  0.000000  0.000000  0.000000  0.000000  0.000000
                       0.000000  0.000000  0.000000  0.000000
                       1.000000  1.000000  1.000000  1.000000  1.000000  1.000000
                       1.000000  1.000000  1.000000  1.000000  1.000000  1.000000
                       1.000000  1.000000  1.000000  1.000000  1.000000  1.000000
                       1.000000  1.000000  1.000000  0.996650  0.995882  0.995874
                       0.000539  0.000539  0.000001  0.000000  0.000000  0.000000
                       0.000000  0.000000  0.000000  0.000000  0.000000  0.000000
                       0.000000  0.000000  0.000000  0.000000
                       1.000000  1.000000  1.000000  1.000000  1.000000  1.000000
                       1.000000  1.000000  1.000000  1.000000  1.000000  1.000000
                       1.000000  1.000000  1.000000  1.000000  1.000000  1.000000
                       1.000000  1.000000  1.000000  0.999995  0.300906  0.266203
                       0.000025  0.000000  0.000000  0.000000  0.000000  0.000000
                       0.000000  0.000000  0.000000  0.000000  0.000000  0.000000
                       0.000000  0.000000  0.000000  0.000000
                       1.000000  1.000000  1.000000  1.000000  1.000000  1.000000
                       1.000000  1.000000  1.000000  1.000000  1.000000  1.000000
                       1.000000  1.000000  1.000000  1.000000  1.000000  1.000000
                       1.000000  1.000000  1.000000  1.000000  0.001340  0.000259
                       0.000000  0.000000  0.000000  0.000000  0.000000  0.000000
                       0.000000  0.000000  0.000000  0.000000  0.000000  0.000000
                       0.000000  0.000000  0.000000  0.000000
                       1.000000  1.000000  1.000000  1.000000  1.000000  1.000000
                       1.000000  1.000000  1.000000  1.000000  1.000000  1.000000
                       1.000000  1.000000  1.000000  1.000000  1.000000  1.000000
                       1.000000  1.000000  1.000000  1.000000  0.000048  0.000023
                       0.000000  0.000000  0.000000  0.000000  0.000000  0.000000
                       0.000000  0.000000  0.000000  0.000000  0.000000  0.000000
                       0.000000  0.000000  0.000000  0.000000
                       1.000000  1.000000  1.000000  1.000000  1.000000  1.000000
                       1.000000  1.000000  1.000000  1.000000  1.000000  1.000000
                       1.000000  1.000000  1.000000  1.000000  1.000000  1.000000
                       1.000000  1.000000  1.000000  1.000000  0.000048  0.000023
                       0.000000  0.000000  0.000000  0.000000  0.000000  0.000000
                       0.000000  0.000000  0.000000  0.000000  0.000000  0.000000
                       0.000000  0.000000  0.000000  0.000000
                       1.000000  1.000000  1.000000  1.000000  1.000000  1.000000
                       1.000000  1.000000  1.000000  1.000000  1.000000  1.000000
                       1.000000  1.000000  1.000000  1.000000  1.000000  1.000000
                       1.000000  1.000000  1.000000  1.000000  0.001340  0.000259
                       0.000000  0.000000  0.000000  0.000000  0.000000  0.000000
                       0.000000  0.000000  0.000000  0.000000  0.000000  0.000000
                       0.000000  0.000000  0.000000  0.000000
                       1.000000  1.000000  1.000000  1.000000  1.000000  1.000000
                       1.000000  1.000000  1.000000  1.000000  1.000000  1.000000
                       1.000000  1.000000  1.000000  1.000000  1.000000  1.000000
                       1.000000  1.000000  1.000000  0.999995  0.300889  0.266198
                       0.000025  0.000000  0.000000  0.000000  0.000000  0.000000
                       0.000000  0.000000  0.000000  0.000000  0.000000  0.000000
                       0.000000  0.000000  0.000000  0.000000
                       prtocc : prtvol=0, do not print more k-points.
           occopt           7
        pawecutdg      4.50000000E+01 Hartree
        pawfatbnd1          0
        pawfatbnd2          0
        pawfatbnd3          2
        pawfatbnd4          0
        pawprtdos1          0
        pawprtdos2          0
        pawprtdos3          0
        pawprtdos4          2
           prtdos1          0
           prtdos2          0
           prtdos3          0
           prtdos4          3
            rprim      2.1584523900E+00  0.0000000000E+00  2.1584523900E+00
                       2.1584523900E+00  2.1584523900E+00  0.0000000000E+00
                       0.0000000000E+00  2.1584523900E+00  2.1584523900E+00
           shiftk      5.00000000E-01  5.00000000E-01  5.00000000E-01
          spgroup          79
           spinat      0.0000000000E+00  0.0000000000E+00  1.0000000000E+00
                       0.0000000000E+00  0.0000000000E+00  0.0000000000E+00
           strten1     3.7841734249E-04  3.7841734249E-04  3.7843641633E-04
                       0.0000000000E+00  0.0000000000E+00  0.0000000000E+00
           symrel      1  0  0   0  1  0   0  0  1       0 -1  1   0 -1  0   1 -1  0
                       0  0  1  -1  0  1   0 -1  1       1 -1  0   1  0 -1   1  0  0
           tolvrs1     1.00000000E-03
           tolvrs2     0.00000000E+00
           tolvrs3     0.00000000E+00
           tolvrs4     0.00000000E+00
           tolwfr1     0.00000000E+00
           tolwfr2     1.00000000E-08
           tolwfr3     1.00000000E-08
           tolwfr4     1.00000000E-08
            typat      1  2
           useylm           1
              wtk1       0.01563    0.01563    0.01563    0.01563    0.01563    0.01563
                         0.01563    0.01563    0.01563    0.01563    0.01563    0.01563
                         0.01563    0.01563    0.01563    0.01563    0.01563    0.01563
                         0.01563    0.01563    0.01563    0.01563    0.01563    0.01563
                         0.01563    0.01563    0.01563    0.01563    0.01563    0.01563
                         0.01563    0.01563    0.01563    0.01563    0.01563    0.01563
                         0.01563    0.01563    0.01563    0.01563    0.01563    0.01563
                         0.01563    0.01563    0.01563    0.01563    0.01563    0.01563
                         0.01563    0.01563
              wtk2       1.00000    1.00000    1.00000    1.00000    1.00000    1.00000
                         1.00000    1.00000    1.00000    1.00000    1.00000    1.00000
                         1.00000    1.00000    1.00000    1.00000    1.00000    1.00000
                         1.00000    1.00000    1.00000    1.00000    1.00000    1.00000
                         1.00000    1.00000    1.00000    1.00000    1.00000    1.00000
                         1.00000    1.00000    1.00000    1.00000    1.00000    1.00000
                         1.00000    1.00000    1.00000    1.00000    1.00000    1.00000
                         1.00000    1.00000    1.00000    1.00000    1.00000    1.00000
                         1.00000    1.00000
              wtk3       1.00000    1.00000    1.00000    1.00000    1.00000    1.00000
                         1.00000    1.00000    1.00000    1.00000    1.00000    1.00000
                         1.00000    1.00000    1.00000    1.00000    1.00000    1.00000
                         1.00000    1.00000    1.00000    1.00000    1.00000    1.00000
                         1.00000    1.00000    1.00000    1.00000    1.00000    1.00000
                         1.00000    1.00000    1.00000    1.00000    1.00000    1.00000
                         1.00000    1.00000    1.00000    1.00000    1.00000    1.00000
                         1.00000    1.00000    1.00000    1.00000    1.00000    1.00000
                         1.00000    1.00000
              wtk4       0.01563    0.01563    0.01563    0.01563    0.01563    0.01563
                         0.01563    0.01563    0.01563    0.01563    0.01563    0.01563
                         0.01563    0.01563    0.01563    0.01563    0.01563    0.01563
                         0.01563    0.01563    0.01563    0.01563    0.01563    0.01563
                         0.01563    0.01563    0.01563    0.01563    0.01563    0.01563
                         0.01563    0.01563    0.01563    0.01563    0.01563    0.01563
                         0.01563    0.01563    0.01563    0.01563    0.01563    0.01563
                         0.01563    0.01563    0.01563    0.01563    0.01563    0.01563
                         0.01563    0.01563
                       outvars : Printing only first  50 k-points.
           xangst      0.0000000000E+00  0.0000000000E+00  0.0000000000E+00
                       0.0000000000E+00  0.0000000000E+00  2.1584523900E+00
            xcart      0.0000000000E+00  0.0000000000E+00  0.0000000000E+00
                       0.0000000000E+00  0.0000000000E+00  4.0788838880E+00
             xred      0.0000000000E+00  0.0000000000E+00  0.0000000000E+00
                       5.0000000000E-01 -5.0000000000E-01  5.0000000000E-01
            znucl       26.00000    8.00000

================================================================================


- Timing analysis has been suppressed with timopt=0



================================================================================

 Suggested references for the acknowledgment of ABINIT usage.

 The users of ABINIT have little formal obligations with respect to the ABINIT group
 (those specified in the GNU General Public License, http://www.gnu.org/copyleft/gpl.txt).
 However, it is common practice in the scientific literature,
 to acknowledge the efforts of people that have made the research possible.
 In this spirit, please find below suggested citations of work written by ABINIT developers,
 corresponding to implementations inside of ABINIT that you have used in the present run.
 Note also that it will be of great value to readers of publications presenting these results,
 to read papers enabling them to understand the theoretical formalism and details
 of the ABINIT implementation.
 For information on why they are suggested, see also http://www.abinit.org/about/?text=acknowledgments.
-
- [1] Implementation of the Projector Augmented-Wave Method in the ABINIT code.
- M. Torrent, F. Jollet, F. Bottin, G. Zerah, and X. Gonze Comput. Mat. Science 42, 337, (2008).
- Comment : PAW calculations. Strong suggestion to cite this paper.
-
- [2] Recent developments in the ABINIT software package.
- Computer Phys. Comm. 205, 106 (2016).
- X.Gonze, F.Jollet, F.Abreu Araujo, D.Adams, B.Amadon, T.Applencourt,
- C.Audouze, J.-M.Beuken, J.Bieder, A.Bokhanchuk, E.Bousquet, F.Bruneval
- D.Caliste, M.Cote, F.Dahm, F.Da Pieve, M.Delaveau, M.Di Gennaro,
- B.Dorado, C.Espejo, G.Geneste, L.Genovese, A.Gerossier, M.Giantomassi,
- Y.Gillet, D.R.Hamann, L.He, G.Jomard, J.Laflamme Janssen, S.Le Roux,
- A.Levitt, A.Lherbier, F.Liu, I.Lukacevic, A.Martin, C.Martins,
- M.J.T.Oliveira, S.Ponce, Y.Pouillon, T.Rangel, G.-M.Rignanese,
- A.H.Romero, B.Rousseau, O.Rubel, A.A.Shukri, M.Stankovski, M.Torrent,
- M.J.Van Setten, B.Van Troeye, M.J.Verstraete, D.Waroquier, J.Wiktor,
- B.Xue, A.Zhou, J.W.Zwanziger.
- Comment : the fourth generic paper describing the ABINIT project.
- Note that a version of this paper, that is not formatted for Computer Phys. Comm. 
- is available at http://www.abinit.org/about/ABINIT16.pdf .
- The licence allows the authors to put it on the Web.
-
- [3] ABINIT : First-principles approach of materials and nanosystem properties.
- Computer Phys. Comm. 180, 2582-2615 (2009).
- X. Gonze, B. Amadon, P.-M. Anglade, J.-M. Beuken, F. Bottin, P. Boulanger, F. Bruneval,
- D. Caliste, R. Caracas, M. Cote, T. Deutsch, L. Genovese, Ph. Ghosez, M. Giantomassi
- S. Goedecker, D.R. Hamann, P. Hermet, F. Jollet, G. Jomard, S. Leroux, M. Mancini, S. Mazevet,
- M.J.T. Oliveira, G. Onida, Y. Pouillon, T. Rangel, G.-M. Rignanese, D. Sangalli, R. Shaltaf,
- M. Torrent, M.J. Verstraete, G. Zerah, J.W. Zwanziger
- Comment : the third generic paper describing the ABINIT project.
- Note that a version of this paper, that is not formatted for Computer Phys. Comm. 
- is available at http://www.abinit.org/about/ABINIT_CPC_v10.pdf .
- The licence allows the authors to put it on the Web.
-
- [4] A brief introduction to the ABINIT software package.
- Z. Kristallogr. 220, 558-562 (2005).
- X. Gonze, G.-M. Rignanese, M. Verstraete, J.-M. Beuken, Y. Pouillon, R. Caracas, F. Jollet,
- M. Torrent, G. Zerah, M. Mikami, Ph. Ghosez, M. Veithen, J.-Y. Raty, V. Olevano, F. Bruneval,
- L. Reining, R. Godby, G. Onida, D.R. Hamann, and D.C. Allan.
- Comment : the second generic paper describing the ABINIT project. Note that this paper
- should be cited especially if you are using the GW part of ABINIT, as several authors
- of this part are not in the list of authors of the first or third paper.
- The .pdf of the latter paper is available at http://www.abinit.org/about/zfk_0505-06_558-562.pdf.
- Note that it should not redistributed (Copyright by Oldenburg Wissenshaftverlag,
- the licence allows the authors to put it on the Web).
-
- And optionally:
-
- [5] First-principles computation of material properties : the ABINIT software project. 
- X. Gonze, J.-M. Beuken, R. Caracas, F. Detraux, M. Fuchs, G.-M. Rignanese, L. Sindic,
- M. Verstraete, G. Zerah, F. Jollet, M. Torrent, A. Roy, M. Mikami, Ph. Ghosez, J.-Y. Raty, D.C. Allan.
- Computational Materials Science 25, 478-492 (2002). http://dx.doi.org/10.1016/S0927-0256(02)00325-7
- Comment : the original paper describing the ABINIT project.
-
- Proc.   0 individual time (sec): cpu=        105.3  wall=        106.3

================================================================================

 Calculation completed.
.Delivered   0 WARNINGs and   4 COMMENTs to log file.
+Overall time at end (sec) : cpu=       1698.7  wall=       1700.3
