
     Program PROJWFC v.6.1 (svn rev. 13369) starts on 15Aug2017 at 19:42:55 

     This program is part of the open-source Quantum ESPRESSO suite
     for quantum simulation of materials; please cite
         "P. Giannozzi et al., J. Phys.:Condens. Matter 21 395502 (2009);
          URL http://www.quantum-espresso.org", 
     in publications or presentations arising from this work. More details at
     http://www.quantum-espresso.org/quote

     Parallel version (MPI), running on     8 processors
     R & G space division:  proc/nbgrp/npool/nimage =       8

     Reading data from directory:
     ./outdir/pwscf.save

   Info: using nr1, nr2, nr3 values from input

   Info: using nr1, nr2, nr3 values from input

     IMPORTANT: XC functional enforced from input :
     Exchange-correlation      =  SLA  PZ   NOGX NOGC ( 1  1  0  0 0 0)
     Any further DFT definition will be discarded
     Please, verify this is what you really want

               file Fe.rel-pz-spn-kjpaw_psl.0.2.1.UPF: wavefunction(s)  3D renormalized
               file O.rel-pz-n-kjpaw_psl.0.1.UPF: wavefunction(s)  2P 2P renormalized

     Parallelization info
     --------------------
     sticks:   dense  smooth     PW     G-vecs:    dense   smooth      PW
     Min          33      33     11                  371      371      70
     Max          35      35     12                  372      372      71
     Sum         271     271     91                 2975     2975     561


     Check: negative/imaginary core charge=   -0.007906    0.000000

     negative rho (up, down):  0.000E+00 2.662E-02

     Gaussian broadening (read from file): ngauss,degauss=   0    0.020000


     Calling projwave_nc .... 

     Atomic states used for projection
     (read from pseudopotential files):

     state #   1: atom   1 (Fe ), wfc  1 (j=0.5 l=0 m_j=-0.5)
     state #   2: atom   1 (Fe ), wfc  1 (j=0.5 l=0 m_j= 0.5)
     state #   3: atom   1 (Fe ), wfc  2 (j=0.5 l=0 m_j=-0.5)
     state #   4: atom   1 (Fe ), wfc  2 (j=0.5 l=0 m_j= 0.5)
     state #   5: atom   1 (Fe ), wfc  3 (j=0.5 l=1 m_j=-0.5)
     state #   6: atom   1 (Fe ), wfc  3 (j=0.5 l=1 m_j= 0.5)
     state #   7: atom   1 (Fe ), wfc  4 (j=1.5 l=1 m_j=-1.5)
     state #   8: atom   1 (Fe ), wfc  4 (j=1.5 l=1 m_j=-0.5)
     state #   9: atom   1 (Fe ), wfc  4 (j=1.5 l=1 m_j= 0.5)
     state #  10: atom   1 (Fe ), wfc  4 (j=1.5 l=1 m_j= 1.5)
     state #  11: atom   1 (Fe ), wfc  5 (j=0.5 l=1 m_j=-0.5)
     state #  12: atom   1 (Fe ), wfc  5 (j=0.5 l=1 m_j= 0.5)
     state #  13: atom   1 (Fe ), wfc  6 (j=1.5 l=1 m_j=-1.5)
     state #  14: atom   1 (Fe ), wfc  6 (j=1.5 l=1 m_j=-0.5)
     state #  15: atom   1 (Fe ), wfc  6 (j=1.5 l=1 m_j= 0.5)
     state #  16: atom   1 (Fe ), wfc  6 (j=1.5 l=1 m_j= 1.5)
     state #  17: atom   1 (Fe ), wfc  7 (j=1.5 l=2 m_j=-1.5)
     state #  18: atom   1 (Fe ), wfc  7 (j=1.5 l=2 m_j=-0.5)
     state #  19: atom   1 (Fe ), wfc  7 (j=1.5 l=2 m_j= 0.5)
     state #  20: atom   1 (Fe ), wfc  7 (j=1.5 l=2 m_j= 1.5)
     state #  21: atom   1 (Fe ), wfc  8 (j=2.5 l=2 m_j=-2.5)
     state #  22: atom   1 (Fe ), wfc  8 (j=2.5 l=2 m_j=-1.5)
     state #  23: atom   1 (Fe ), wfc  8 (j=2.5 l=2 m_j=-0.5)
     state #  24: atom   1 (Fe ), wfc  8 (j=2.5 l=2 m_j= 0.5)
     state #  25: atom   1 (Fe ), wfc  8 (j=2.5 l=2 m_j= 1.5)
     state #  26: atom   1 (Fe ), wfc  8 (j=2.5 l=2 m_j= 2.5)
     state #  27: atom   2 (O  ), wfc  1 (j=0.5 l=0 m_j=-0.5)
     state #  28: atom   2 (O  ), wfc  1 (j=0.5 l=0 m_j= 0.5)
     state #  29: atom   2 (O  ), wfc  2 (j=0.5 l=1 m_j=-0.5)
     state #  30: atom   2 (O  ), wfc  2 (j=0.5 l=1 m_j= 0.5)
     state #  31: atom   2 (O  ), wfc  3 (j=1.5 l=1 m_j=-1.5)
     state #  32: atom   2 (O  ), wfc  3 (j=1.5 l=1 m_j=-0.5)
     state #  33: atom   2 (O  ), wfc  3 (j=1.5 l=1 m_j= 0.5)
     state #  34: atom   2 (O  ), wfc  3 (j=1.5 l=1 m_j= 1.5)

 k =   0.0000000000  0.0000000000  0.0000000000
==== e(   1) =   -75.57702 eV ==== 
     psi = 0.974*[#   2]+0.026*[#   4]+
    |psi|^2 = 1.000
==== e(   2) =   -71.84259 eV ==== 
     psi = 0.972*[#   1]+0.028*[#   3]+
    |psi|^2 = 1.000
==== e(   3) =   -41.90568 eV ==== 
     psi = 0.793*[#   5]+0.181*[#   8]+0.017*[#  11]+0.004*[#  14]+0.002*[#  29]+
    |psi|^2 = 0.999
==== e(   4) =   -41.42452 eV ==== 
     psi = 0.536*[#   6]+0.439*[#   9]+0.012*[#  12]+0.010*[#  15]+0.001*[#  30]+
          +0.001*[#  33]+
    |psi|^2 = 0.999
==== e(   5) =   -40.74307 eV ==== 
     psi = 0.974*[#  10]+0.022*[#  16]+0.003*[#  34]+
    |psi|^2 = 0.999
==== e(   6) =   -37.99982 eV ==== 
     psi = 0.536*[#   9]+0.440*[#   6]+0.011*[#  15]+0.009*[#  12]+0.001*[#  33]+
          +0.001*[#  30]+
    |psi|^2 = 0.999
==== e(   7) =   -37.53046 eV ==== 
     psi = 0.794*[#   8]+0.182*[#   5]+0.016*[#  14]+0.004*[#  11]+0.002*[#  32]+
    |psi|^2 = 0.999
==== e(   8) =   -37.14421 eV ==== 
     psi = 0.976*[#   7]+0.020*[#  13]+0.003*[#  31]+
    |psi|^2 = 0.999
==== e(   9) =    -6.46877 eV ==== 
     psi = 0.626*[#  28]+0.362*[#   4]+0.011*[#   2]+
    |psi|^2 = 1.000
==== e(  10) =    -5.85906 eV ==== 
     psi = 0.625*[#  27]+0.363*[#   3]+0.012*[#   1]+
    |psi|^2 = 1.000
==== e(  11) =     9.94577 eV ==== 
     psi = 0.615*[#  18]+0.384*[#  23]+
    |psi|^2 = 0.999
==== e(  12) =     9.96224 eV ==== 
     psi = 0.579*[#  17]+0.289*[#  26]+0.131*[#  22]+
    |psi|^2 = 0.999
==== e(  13) =    10.00584 eV ==== 
     psi = 0.785*[#  25]+0.213*[#  20]+
    |psi|^2 = 0.999
==== e(  14) =    10.24304 eV ==== 
     psi = 0.567*[#  24]+0.433*[#  19]+
    |psi|^2 = 0.999
==== e(  15) =    10.25922 eV ==== 
     psi = 0.710*[#  26]+0.238*[#  17]+0.051*[#  22]+
    |psi|^2 = 0.999
==== e(  16) =    10.41014 eV ==== 
     psi = 0.684*[#  29]+0.299*[#  32]+0.009*[#  11]+0.004*[#  14]+
    |psi|^2 = 0.996
==== e(  17) =    10.42437 eV ==== 
     psi = 0.624*[#  33]+0.358*[#  30]+0.008*[#  15]+0.005*[#  12]+
    |psi|^2 = 0.996
==== e(  18) =    10.43950 eV ==== 
     psi = 0.983*[#  34]+0.012*[#  16]+0.001*[#  10]+
    |psi|^2 = 0.996
==== e(  19) =    11.03761 eV ==== 
     psi = 0.624*[#  30]+0.358*[#  33]+0.008*[#  12]+0.004*[#  15]+
    |psi|^2 = 0.996
==== e(  20) =    11.05155 eV ==== 
     psi = 0.684*[#  32]+0.298*[#  29]+0.009*[#  14]+0.004*[#  11]+
    |psi|^2 = 0.996
==== e(  21) =    11.06558 eV ==== 
     psi = 0.982*[#  31]+0.012*[#  13]+0.001*[#   7]+
    |psi|^2 = 0.996
==== e(  22) =    12.85230 eV ==== 
     psi = 0.562*[#  19]+0.429*[#  24]+
    |psi|^2 = 0.992
==== e(  23) =    12.87422 eV ==== 
     psi = 0.446*[#  20]+0.422*[#  21]+0.123*[#  25]+
    |psi|^2 = 0.992
==== e(  24) =    12.90568 eV ==== 
     psi = 0.811*[#  22]+0.181*[#  17]+
    |psi|^2 = 0.992
==== e(  25) =    13.62853 eV ==== 
     psi = 0.613*[#  23]+0.382*[#  18]+
    |psi|^2 = 0.995
==== e(  26) =    13.63352 eV ==== 
     psi = 0.571*[#  21]+0.335*[#  20]+0.089*[#  25]+
    |psi|^2 = 0.995
==== e(  27) =    14.49690 eV ==== 
     psi = 0.609*[#   4]+0.371*[#  28]+0.015*[#   2]+
    |psi|^2 = 0.995
==== e(  28) =    15.31501 eV ==== 
     psi = 0.607*[#   3]+0.372*[#  27]+0.016*[#   1]+
    |psi|^2 = 0.995
==== e(  29) =    29.29658 eV ==== 
     psi = 
    |psi|^2 = 0.000
==== e(  30) =    29.64264 eV ==== 
     psi = 
    |psi|^2 = 0.000

 k =   0.0154431636  0.0000000000  0.0000000000
==== e(   1) =   -75.58549 eV ==== 
     psi = 0.965*[#   2]+0.021*[#   4]+0.007*[#  16]+0.004*[#  11]+0.002*[#  14]+
    |psi|^2 = 1.000
==== e(   2) =   -71.85055 eV ==== 
     psi = 0.964*[#   1]+0.022*[#   3]+0.007*[#  13]+0.004*[#  12]+0.002*[#  15]+
    |psi|^2 = 1.000
==== e(   3) =   -41.94406 eV ==== 
     psi = 0.793*[#   5]+0.182*[#   8]+0.016*[#  11]+0.004*[#  14]+0.002*[#  29]+
    |psi|^2 = 0.999
==== e(   4) =   -41.44126 eV ==== 
     psi = 0.537*[#   6]+0.438*[#   9]+0.011*[#  12]+0.010*[#  15]+0.001*[#  30]+
          +0.001*[#  33]+
    |psi|^2 = 0.999
==== e(   5) =   -40.78129 eV ==== 
     psi = 0.976*[#  10]+0.020*[#  16]+0.002*[#  34]+
    |psi|^2 = 0.999
==== e(   6) =   -38.03452 eV ==== 
     psi = 0.538*[#   9]+0.440*[#   6]+0.010*[#  15]+0.008*[#  12]+0.001*[#  33]+
          +0.001*[#  30]+
    |psi|^2 = 0.999
==== e(   7) =   -37.54552 eV ==== 
     psi = 0.794*[#   8]+0.183*[#   5]+0.016*[#  14]+0.004*[#  11]+0.002*[#  32]+
    |psi|^2 = 0.999
==== e(   8) =   -37.17888 eV ==== 
     psi = 0.977*[#   7]+0.018*[#  13]+0.003*[#  31]+
    |psi|^2 = 0.999
==== e(   9) =    -6.45736 eV ==== 
     psi = 0.623*[#  28]+0.341*[#   4]+0.012*[#  16]+0.012*[#   2]+0.008*[#  11]+
          +0.004*[#  14]+
    |psi|^2 = 1.000
==== e(  10) =    -5.84734 eV ==== 
     psi = 0.621*[#  27]+0.342*[#   3]+0.013*[#   1]+0.012*[#  13]+0.008*[#  12]+
          +0.004*[#  15]+
    |psi|^2 = 1.000
==== e(  11) =     9.78122 eV ==== 
     psi = 0.316*[#  17]+0.251*[#  34]+0.110*[#  29]+0.071*[#  22]+0.068*[#  26]+
          +0.067*[#  24]+0.053*[#  32]+0.050*[#  19]+0.006*[#   4]+0.003*[#  28]+
          +0.002*[#  16]+
    |psi|^2 = 0.998
==== e(  12) =     9.89141 eV ==== 
     psi = 0.455*[#  18]+0.284*[#  23]+0.106*[#  25]+0.080*[#  33]+0.042*[#  30]+
          +0.029*[#  20]+0.002*[#  15]+0.001*[#  12]+
    |psi|^2 = 0.999
==== e(  13) =     9.90656 eV ==== 
     psi = 0.484*[#  26]+0.249*[#  17]+0.115*[#  29]+0.056*[#  22]+0.053*[#  32]+
          +0.014*[#  34]+0.013*[#  24]+0.010*[#  19]+0.002*[#  11]+
    |psi|^2 = 0.999
==== e(  14) =     9.97575 eV ==== 
     psi = 0.614*[#  25]+0.167*[#  20]+0.119*[#  18]+0.075*[#  23]+0.015*[#  33]+
          +0.008*[#  30]+
    |psi|^2 = 0.999
==== e(  15) =    10.24940 eV ==== 
     psi = 0.422*[#  24]+0.322*[#  19]+0.153*[#  26]+0.079*[#  17]+0.017*[#  22]+
          +0.003*[#  29]+0.002*[#  34]+
    |psi|^2 = 0.999
==== e(  16) =    10.49611 eV ==== 
     psi = 0.516*[#  33]+0.321*[#  30]+0.064*[#  25]+0.042*[#  18]+0.024*[#  23]+
          +0.019*[#  20]+0.006*[#  15]+0.004*[#  12]+
    |psi|^2 = 0.997
==== e(  17) =    10.49804 eV ==== 
     psi = 0.451*[#  34]+0.269*[#  29]+0.115*[#  32]+0.089*[#  26]+0.050*[#  17]+
          +0.011*[#  22]+0.005*[#  16]+0.003*[#  11]+0.001*[#  14]+
    |psi|^2 = 0.997
==== e(  18) =    10.77659 eV ==== 
     psi = 0.255*[#  34]+0.204*[#  26]+0.199*[#  29]+0.124*[#  17]+0.061*[#  24]+
          +0.058*[#  32]+0.052*[#  19]+0.024*[#  22]+0.010*[#   4]+0.006*[#  28]+
          +0.002*[#  16]+0.001*[#  11]+
    |psi|^2 = 0.997
==== e(  19) =    10.84088 eV ==== 
     psi = 0.395*[#  31]+0.327*[#  30]+0.209*[#  33]+0.014*[#  21]+0.014*[#   3]+
          +0.009*[#  20]+0.007*[#  27]+0.007*[#  23]+0.004*[#  25]+0.003*[#  18]+
          +0.002*[#  12]+0.002*[#  13]+0.001*[#  15]+
    |psi|^2 = 0.996
==== e(  20) =    11.00733 eV ==== 
     psi = 0.690*[#  32]+0.275*[#  29]+0.009*[#  14]+0.007*[#  22]+0.006*[#  24]+
          +0.004*[#  11]+0.003*[#  19]+
    |psi|^2 = 0.996
==== e(  21) =    11.00759 eV ==== 
     psi = 0.552*[#  31]+0.262*[#  30]+0.151*[#  33]+0.007*[#  20]+0.007*[#  13]+
          +0.006*[#  21]+0.004*[#  12]+0.002*[#  15]+0.002*[#  25]+
    |psi|^2 = 0.996
==== e(  22) =    12.85434 eV ==== 
     psi = 0.461*[#  19]+0.352*[#  24]+0.144*[#  22]+0.032*[#  17]+0.001*[#  32]+
    |psi|^2 = 0.991
==== e(  23) =    12.92209 eV ==== 
     psi = 0.435*[#  20]+0.421*[#  21]+0.120*[#  25]+0.010*[#  31]+0.004*[#  30]+
          +0.002*[#  33]+
    |psi|^2 = 0.992
==== e(  24) =    12.93625 eV ==== 
     psi = 0.661*[#  22]+0.147*[#  17]+0.097*[#  19]+0.074*[#  24]+0.009*[#  32]+
          +0.005*[#  29]+
    |psi|^2 = 0.992
==== e(  25) =    13.63508 eV ==== 
     psi = 0.469*[#  23]+0.293*[#  18]+0.135*[#  21]+0.077*[#  20]+0.021*[#  25]+
    |psi|^2 = 0.995
==== e(  26) =    13.74245 eV ==== 
     psi = 0.417*[#  21]+0.250*[#  20]+0.137*[#  23]+0.086*[#  18]+0.067*[#  25]+
          +0.016*[#  31]+0.012*[#  30]+0.006*[#  33]+0.003*[#   3]+0.002*[#  27]+
    |psi|^2 = 0.995
==== e(  27) =    14.59162 eV ==== 
     psi = 0.572*[#   4]+0.364*[#  28]+0.015*[#   2]+0.011*[#  16]+0.011*[#  34]+
          +0.007*[#  11]+0.007*[#  29]+0.004*[#  14]+0.004*[#  32]+
    |psi|^2 = 0.995
==== e(  28) =    15.41172 eV ==== 
     psi = 0.568*[#   3]+0.365*[#  27]+0.016*[#   1]+0.011*[#  13]+0.011*[#  31]+
          +0.007*[#  12]+0.007*[#  30]+0.004*[#  15]+0.004*[#  33]+
    |psi|^2 = 0.995
==== e(  29) =    28.94216 eV ==== 
     psi = 
    |psi|^2 = 0.000
==== e(  30) =    29.42193 eV ==== 
     psi = 
    |psi|^2 = 0.002

 k =   0.0308863272  0.0000000000  0.0000000000
==== e(   1) =   -75.58867 eV ==== 
     psi = 0.946*[#   2]+0.022*[#  16]+0.014*[#  11]+0.010*[#   4]+0.007*[#  14]+
    |psi|^2 = 1.000
==== e(   2) =   -71.85352 eV ==== 
     psi = 0.945*[#   1]+0.022*[#  13]+0.014*[#  12]+0.011*[#   3]+0.007*[#  15]+
    |psi|^2 = 1.000
==== e(   3) =   -41.96127 eV ==== 
     psi = 0.795*[#   5]+0.183*[#   8]+0.013*[#  11]+0.003*[#  14]+0.002*[#   4]+
          +0.002*[#  29]+
    |psi|^2 = 0.999
==== e(   4) =   -41.44718 eV ==== 
     psi = 0.538*[#   6]+0.438*[#   9]+0.010*[#  12]+0.010*[#  15]+0.001*[#  30]+
          +0.001*[#  33]+
    |psi|^2 = 0.999
==== e(   5) =   -40.79782 eV ==== 
     psi = 0.978*[#  10]+0.015*[#  16]+0.002*[#  34]+0.002*[#   4]+
    |psi|^2 = 0.999
==== e(   6) =   -38.05053 eV ==== 
     psi = 0.539*[#   9]+0.440*[#   6]+0.008*[#  15]+0.006*[#  12]+0.002*[#   3]+
          +0.001*[#   7]+0.001*[#  33]+
    |psi|^2 = 0.999
==== e(   7) =   -37.55091 eV ==== 
     psi = 0.795*[#   8]+0.183*[#   5]+0.014*[#  14]+0.004*[#  11]+0.002*[#  32]+
    |psi|^2 = 0.999
==== e(   8) =   -37.19419 eV ==== 
     psi = 0.979*[#   7]+0.014*[#  13]+0.002*[#  31]+0.002*[#   3]+
    |psi|^2 = 0.999
==== e(   9) =    -6.41047 eV ==== 
     psi = 0.616*[#  28]+0.290*[#   4]+0.041*[#  16]+0.026*[#  11]+0.014*[#  14]+
          +0.013*[#   2]+
    |psi|^2 = 1.000
==== e(  10) =    -5.79997 eV ==== 
     psi = 0.614*[#  27]+0.290*[#   3]+0.041*[#  13]+0.027*[#  12]+0.014*[#   1]+
          +0.014*[#  15]+
    |psi|^2 = 1.000
==== e(  11) =     9.21081 eV ==== 
     psi = 0.261*[#  34]+0.169*[#  29]+0.160*[#  17]+0.143*[#  26]+0.082*[#  32]+
          +0.065*[#  24]+0.047*[#  19]+0.037*[#  22]+0.021*[#   4]+0.011*[#  28]+
    |psi|^2 = 0.998
==== e(  12) =     9.75149 eV ==== 
     psi = 0.282*[#  18]+0.191*[#  33]+0.189*[#  25]+0.177*[#  23]+0.099*[#  30]+
          +0.051*[#  20]+0.006*[#  15]+0.003*[#  12]+
    |psi|^2 = 0.998
==== e(  13) =     9.75351 eV ==== 
     psi = 0.328*[#  26]+0.294*[#  17]+0.123*[#  34]+0.121*[#  29]+0.066*[#  22]+
          +0.055*[#  32]+0.005*[#  16]+0.003*[#  11]+0.001*[#  14]+0.001*[#  24]+
    |psi|^2 = 0.998
==== e(  14) =     9.93897 eV ==== 
     psi = 0.464*[#  25]+0.246*[#  18]+0.154*[#  23]+0.126*[#  20]+0.005*[#  33]+
          +0.003*[#  30]+
    |psi|^2 = 0.999
==== e(  15) =    10.26004 eV ==== 
     psi = 0.423*[#  24]+0.325*[#  19]+0.132*[#  26]+0.095*[#  17]+0.021*[#  22]+
          +0.002*[#  29]+0.002*[#  34]+
    |psi|^2 = 0.999
==== e(  16) =    10.36805 eV ==== 
     psi = 0.400*[#  31]+0.324*[#  30]+0.115*[#  33]+0.039*[#   3]+0.034*[#  21]+
          +0.031*[#  20]+0.022*[#  27]+0.012*[#  18]+0.011*[#  23]+0.004*[#  25]+
          +0.001*[#   1]+
    |psi|^2 = 0.996
==== e(  17) =    10.65011 eV ==== 
     psi = 0.370*[#  34]+0.224*[#  29]+0.159*[#  26]+0.119*[#  17]+0.088*[#  32]+
          +0.028*[#  22]+0.003*[#  16]+0.002*[#  11]+0.001*[#  24]+
    |psi|^2 = 0.997
==== e(  18) =    10.65064 eV ==== 
     psi = 0.467*[#  33]+0.212*[#  30]+0.136*[#  25]+0.083*[#  18]+0.057*[#  23]+
          +0.031*[#  20]+0.004*[#  15]+0.004*[#  31]+0.002*[#  12]+
    |psi|^2 = 0.997
==== e(  19) =    10.89673 eV ==== 
     psi = 0.599*[#  32]+0.323*[#  29]+0.018*[#  19]+0.014*[#  22]+0.012*[#  17]+
          +0.011*[#  14]+0.007*[#  24]+0.005*[#  11]+0.004*[#  34]+0.002*[#  26]+
    |psi|^2 = 0.996
==== e(  20) =    10.89877 eV ==== 
     psi = 0.478*[#  31]+0.280*[#  30]+0.171*[#  33]+0.022*[#  21]+0.021*[#  20]+
          +0.008*[#  13]+0.005*[#  12]+0.005*[#  25]+0.003*[#  15]+
    |psi|^2 = 0.996
==== e(  21) =    11.10416 eV ==== 
     psi = 0.233*[#  26]+0.184*[#  34]+0.141*[#  17]+0.111*[#  32]+0.101*[#  29]+
          +0.080*[#  24]+0.054*[#  19]+0.035*[#  22]+0.033*[#   4]+0.023*[#  28]+
          +0.001*[#   2]+
    |psi|^2 = 0.997
==== e(  22) =    12.81736 eV ==== 
     psi = 0.340*[#  19]+0.319*[#  22]+0.260*[#  24]+0.071*[#  17]+
    |psi|^2 = 0.991
==== e(  23) =    13.05048 eV ==== 
     psi = 0.417*[#  20]+0.410*[#  21]+0.115*[#  25]+0.029*[#  31]+0.014*[#  30]+
          +0.007*[#  33]+
    |psi|^2 = 0.993
==== e(  24) =    13.05745 eV ==== 
     psi = 0.473*[#  22]+0.208*[#  19]+0.159*[#  24]+0.104*[#  17]+0.032*[#  32]+
          +0.017*[#  29]+
    |psi|^2 = 0.993
==== e(  25) =    13.65121 eV ==== 
     psi = 0.463*[#  23]+0.289*[#  18]+0.144*[#  21]+0.079*[#  20]+0.021*[#  25]+
    |psi|^2 = 0.995
==== e(  26) =    13.95261 eV ==== 
     psi = 0.374*[#  21]+0.231*[#  20]+0.132*[#  23]+0.083*[#  18]+0.061*[#  25]+
          +0.029*[#  31]+0.029*[#   3]+0.022*[#  30]+0.021*[#  27]+0.011*[#  33]+
    |psi|^2 = 0.995
==== e(  27) =    14.92321 eV ==== 
     psi = 0.482*[#   4]+0.342*[#  28]+0.040*[#  34]+0.037*[#  16]+0.026*[#  29]+
          +0.024*[#  11]+0.016*[#   2]+0.013*[#  32]+0.012*[#  14]+0.001*[#  26]+
    |psi|^2 = 0.995
==== e(  28) =    15.76294 eV ==== 
     psi = 0.464*[#   3]+0.334*[#  27]+0.042*[#  31]+0.038*[#  13]+0.028*[#  30]+
          +0.024*[#  12]+0.016*[#   1]+0.014*[#  33]+0.012*[#  15]+0.008*[#  21]+
          +0.006*[#  20]+0.003*[#  23]+0.002*[#  18]+0.002*[#  25]+
    |psi|^2 = 0.995
==== e(  29) =    28.32477 eV ==== 
     psi = 
    |psi|^2 = 0.001
==== e(  30) =    28.96048 eV ==== 
     psi = 0.002*[#  22]+0.001*[#  19]+
    |psi|^2 = 0.005

 k =   0.0463294907  0.0000000000  0.0000000000
==== e(   1) =   -75.59169 eV ==== 
     psi = 0.926*[#   2]+0.035*[#  16]+0.023*[#  11]+0.012*[#  14]+0.003*[#   4]+
    |psi|^2 = 1.000
==== e(   2) =   -71.85629 eV ==== 
     psi = 0.925*[#   1]+0.036*[#  13]+0.023*[#  12]+0.012*[#  15]+0.003*[#   3]+
    |psi|^2 = 1.000
==== e(   3) =   -41.97549 eV ==== 
     psi = 0.797*[#   5]+0.184*[#   8]+0.009*[#  11]+0.003*[#   4]+0.002*[#  14]+
          +0.002*[#  29]+0.001*[#  10]+
    |psi|^2 = 0.999
==== e(   4) =   -41.45856 eV ==== 
     psi = 0.540*[#   6]+0.438*[#   9]+0.009*[#  15]+0.009*[#  12]+0.001*[#  30]+
          +0.001*[#  33]+
    |psi|^2 = 0.999
==== e(   5) =   -40.81196 eV ==== 
     psi = 0.981*[#  10]+0.010*[#  16]+0.003*[#   4]+0.002*[#  34]+
    |psi|^2 = 0.999
==== e(   6) =   -38.06404 eV ==== 
     psi = 0.541*[#   9]+0.441*[#   6]+0.006*[#  15]+0.003*[#  12]+0.003*[#   3]+
          +0.002*[#   7]+0.001*[#  33]+
    |psi|^2 = 0.999
==== e(   7) =   -37.56171 eV ==== 
     psi = 0.796*[#   8]+0.183*[#   5]+0.012*[#  14]+0.003*[#  11]+0.002*[#  32]+
    |psi|^2 = 0.999
==== e(   8) =   -37.20753 eV ==== 
     psi = 0.982*[#   7]+0.009*[#  13]+0.003*[#   3]+0.002*[#  31]+
    |psi|^2 = 0.999
==== e(   9) =    -6.33599 eV ==== 
     psi = 0.610*[#  28]+0.232*[#   4]+0.071*[#  16]+0.046*[#  11]+0.024*[#  14]+
          +0.015*[#   2]+
    |psi|^2 = 1.000
==== e(  10) =    -5.72466 eV ==== 
     psi = 0.609*[#  27]+0.232*[#   3]+0.072*[#  13]+0.047*[#  12]+0.024*[#  15]+
          +0.015*[#   1]+
    |psi|^2 = 1.000
==== e(  11) =     8.64298 eV ==== 
     psi = 0.268*[#  34]+0.178*[#  29]+0.140*[#  26]+0.134*[#  17]+0.087*[#  32]+
          +0.059*[#  24]+0.042*[#  19]+0.035*[#   4]+0.031*[#  22]+0.020*[#  28]+
          +0.002*[#   2]+
    |psi|^2 = 0.998
==== e(  12) =     9.59378 eV ==== 
     psi = 0.260*[#  33]+0.218*[#  18]+0.186*[#  25]+0.136*[#  23]+0.132*[#  30]+
          +0.051*[#  20]+0.010*[#  15]+0.005*[#  12]+
    |psi|^2 = 0.998
==== e(  13) =     9.59439 eV ==== 
     psi = 0.278*[#  26]+0.253*[#  17]+0.181*[#  34]+0.147*[#  29]+0.067*[#  32]+
          +0.057*[#  22]+0.008*[#  16]+0.005*[#  11]+0.002*[#  14]+
    |psi|^2 = 0.998
==== e(  14) =     9.82219 eV ==== 
     psi = 0.376*[#  31]+0.273*[#  30]+0.119*[#  33]+0.055*[#   3]+0.048*[#  21]+
          +0.040*[#  20]+0.036*[#  27]+0.019*[#  23]+0.013*[#  18]+0.010*[#  25]+
          +0.003*[#   1]+0.001*[#  13]+
    |psi|^2 = 0.996
==== e(  15) =     9.88958 eV ==== 
     psi = 0.425*[#  25]+0.279*[#  18]+0.175*[#  23]+0.116*[#  20]+0.003*[#  33]+
          +0.002*[#  30]+
    |psi|^2 = 0.998
==== e(  16) =    10.27878 eV ==== 
     psi = 0.421*[#  24]+0.327*[#  19]+0.124*[#  26]+0.101*[#  17]+0.023*[#  22]+
          +0.002*[#  29]+0.001*[#  34]+
    |psi|^2 = 0.999
==== e(  17) =    10.74265 eV ==== 
     psi = 0.554*[#  32]+0.337*[#  29]+0.033*[#  22]+0.022*[#  19]+0.018*[#  24]+
          +0.014*[#  14]+0.008*[#  11]+0.005*[#  17]+0.004*[#  26]+
    |psi|^2 = 0.996
==== e(  18) =    10.74343 eV ==== 
     psi = 0.451*[#  31]+0.328*[#  30]+0.113*[#  33]+0.036*[#  21]+0.024*[#  20]+
          +0.019*[#  25]+0.011*[#  13]+0.008*[#  12]+0.003*[#  15]+
    |psi|^2 = 0.996
==== e(  19) =    10.80889 eV ==== 
     psi = 0.317*[#  34]+0.199*[#  26]+0.174*[#  17]+0.145*[#  29]+0.122*[#  32]+
          +0.032*[#  22]+0.002*[#  16]+0.002*[#  19]+0.002*[#  14]+0.001*[#  11]+
    |psi|^2 = 0.997
==== e(  20) =    10.80944 eV ==== 
     psi = 0.434*[#  33]+0.165*[#  25]+0.148*[#  30]+0.116*[#  18]+0.074*[#  23]+
          +0.052*[#  20]+0.004*[#  15]+0.002*[#  31]+0.001*[#  12]+
    |psi|^2 = 0.997
==== e(  21) =    11.34357 eV ==== 
     psi = 0.249*[#  26]+0.155*[#  17]+0.142*[#  34]+0.096*[#  29]+0.082*[#  24]+
          +0.070*[#  32]+0.061*[#  19]+0.056*[#   4]+0.046*[#  28]+0.035*[#  22]+
          +0.002*[#   2]+0.002*[#  16]+0.001*[#  11]+
    |psi|^2 = 0.997
==== e(  22) =    12.74842 eV ==== 
     psi = 0.364*[#  22]+0.308*[#  19]+0.237*[#  24]+0.080*[#  17]+
    |psi|^2 = 0.989
==== e(  23) =    13.22724 eV ==== 
     psi = 0.407*[#  20]+0.391*[#  21]+0.112*[#  25]+0.046*[#  31]+0.023*[#  30]+
          +0.013*[#  33]+
    |psi|^2 = 0.994
==== e(  24) =    13.23292 eV ==== 
     psi = 0.415*[#  22]+0.230*[#  19]+0.175*[#  24]+0.091*[#  17]+0.054*[#  32]+
          +0.028*[#  29]+
    |psi|^2 = 0.994
==== e(  25) =    13.67740 eV ==== 
     psi = 0.461*[#  23]+0.288*[#  18]+0.153*[#  21]+0.074*[#  20]+0.020*[#  25]+
    |psi|^2 = 0.995
==== e(  26) =    14.13826 eV ==== 
     psi = 0.342*[#  21]+0.212*[#  20]+0.122*[#  23]+0.077*[#  18]+0.063*[#   3]+
          +0.056*[#  25]+0.054*[#  27]+0.027*[#  31]+0.022*[#  30]+0.011*[#  33]+
          +0.003*[#  13]+0.002*[#   1]+0.002*[#  12]+0.001*[#  15]+
    |psi|^2 = 0.995
==== e(  27) =    15.42475 eV ==== 
     psi = 0.386*[#   4]+0.312*[#  28]+0.074*[#  34]+0.062*[#  16]+0.049*[#  29]+
          +0.040*[#  11]+0.025*[#  32]+0.021*[#  14]+0.016*[#   2]+0.004*[#  26]+
          +0.003*[#  17]+0.002*[#  24]+
    |psi|^2 = 0.995
==== e(  28) =    16.31486 eV ==== 
     psi = 0.351*[#   3]+0.289*[#  27]+0.080*[#  31]+0.062*[#  13]+0.053*[#  30]+
          +0.040*[#  12]+0.027*[#  33]+0.022*[#  21]+0.021*[#  15]+0.016*[#  20]+
          +0.016*[#   1]+0.008*[#  23]+0.005*[#  18]+0.004*[#  25]+
    |psi|^2 = 0.995
==== e(  29) =    27.71068 eV ==== 
     psi = 
    |psi|^2 = 0.001
==== e(  30) =    28.46140 eV ==== 
     psi = 0.003*[#  22]+0.002*[#  19]+0.002*[#  24]+
    |psi|^2 = 0.008

 k =   0.0617726543  0.0000000000  0.0000000000
==== e(   1) =   -75.60068 eV ==== 
     psi = 0.912*[#   2]+0.044*[#  16]+0.028*[#  11]+0.015*[#  14]+
    |psi|^2 = 1.000
==== e(   2) =   -71.86433 eV ==== 
     psi = 0.912*[#   1]+0.044*[#  13]+0.028*[#  12]+0.015*[#  15]+
    |psi|^2 = 1.000
==== e(   3) =   -42.00338 eV ==== 
     psi = 0.801*[#   5]+0.184*[#   8]+0.005*[#  11]+0.003*[#   4]+0.002*[#  16]+
          +0.001*[#  29]+
    |psi|^2 = 0.999
==== e(   4) =   -41.50780 eV ==== 
     psi = 0.540*[#   6]+0.441*[#   9]+0.008*[#  15]+0.007*[#  12]+0.001*[#  30]+
          +0.001*[#  33]+
    |psi|^2 = 0.999
==== e(   5) =   -40.84149 eV ==== 
     psi = 0.985*[#  10]+0.006*[#  16]+0.003*[#   4]+0.002*[#  11]+0.001*[#  34]+
    |psi|^2 = 0.999
==== e(   6) =   -38.09061 eV ==== 
     psi = 0.541*[#   9]+0.445*[#   6]+0.004*[#  15]+0.003*[#   3]+0.002*[#  13]+
          +0.002*[#  12]+0.001*[#  33]+
    |psi|^2 = 0.999
==== e(   7) =   -37.60735 eV ==== 
     psi = 0.799*[#   8]+0.183*[#   5]+0.010*[#  14]+0.003*[#  11]+0.002*[#  32]+
    |psi|^2 = 0.999
==== e(   8) =   -37.23529 eV ==== 
     psi = 0.986*[#   7]+0.005*[#  13]+0.003*[#   3]+0.002*[#  12]+0.002*[#  31]+
    |psi|^2 = 0.999
==== e(   9) =    -6.24267 eV ==== 
     psi = 0.611*[#  28]+0.182*[#   4]+0.095*[#  16]+0.062*[#  11]+0.032*[#  14]+
          +0.015*[#   2]+
    |psi|^2 = 1.000
==== e(  10) =    -5.62993 eV ==== 
     psi = 0.610*[#  27]+0.181*[#   3]+0.096*[#  13]+0.062*[#  12]+0.032*[#  15]+
          +0.016*[#   1]+
    |psi|^2 = 1.000
==== e(  11) =     8.12005 eV ==== 
     psi = 0.270*[#  34]+0.180*[#  29]+0.134*[#  26]+0.121*[#  17]+0.089*[#  32]+
          +0.055*[#  24]+0.042*[#   4]+0.039*[#  19]+0.028*[#  22]+0.027*[#  28]+
          +0.005*[#  16]+0.003*[#   2]+0.003*[#  11]+0.002*[#  14]+
    |psi|^2 = 0.998
==== e(  12) =     9.28851 eV ==== 
     psi = 0.355*[#  31]+0.241*[#  30]+0.123*[#  33]+0.060*[#   3]+0.056*[#  21]+
          +0.049*[#  20]+0.046*[#  27]+0.020*[#  23]+0.018*[#  18]+0.009*[#  25]+
          +0.007*[#  13]+0.005*[#   1]+0.004*[#  12]+0.002*[#  15]+
    |psi|^2 = 0.996
==== e(  13) =     9.45071 eV ==== 
     psi = 0.295*[#  33]+0.181*[#  18]+0.174*[#  25]+0.165*[#  30]+0.117*[#  23]+
          +0.045*[#  20]+0.013*[#  15]+0.007*[#  12]+
    |psi|^2 = 0.998
==== e(  14) =     9.45095 eV ==== 
     psi = 0.245*[#  26]+0.221*[#  17]+0.219*[#  34]+0.167*[#  29]+0.076*[#  32]+
          +0.050*[#  22]+0.010*[#  16]+0.007*[#  11]+0.003*[#  14]+
    |psi|^2 = 0.998
==== e(  15) =     9.82536 eV ==== 
     psi = 0.412*[#  25]+0.290*[#  18]+0.182*[#  23]+0.112*[#  20]+0.001*[#  33]+
          +0.001*[#  30]+
    |psi|^2 = 0.998
==== e(  16) =    10.30436 eV ==== 
     psi = 0.417*[#  24]+0.331*[#  19]+0.121*[#  26]+0.103*[#  17]+0.024*[#  22]+
          +0.002*[#  29]+
    |psi|^2 = 0.999
==== e(  17) =    10.58442 eV ==== 
     psi = 0.576*[#  32]+0.294*[#  29]+0.036*[#  22]+0.025*[#  24]+0.024*[#  19]+
          +0.018*[#  14]+0.012*[#  17]+0.009*[#  11]+0.001*[#  26]+
    |psi|^2 = 0.996
==== e(  18) =    10.58489 eV ==== 
     psi = 0.438*[#  31]+0.288*[#  30]+0.146*[#  33]+0.046*[#  21]+0.037*[#  20]+
          +0.014*[#  25]+0.013*[#  13]+0.009*[#  12]+0.005*[#  15]+
    |psi|^2 = 0.996
==== e(  19) =    10.95872 eV ==== 
     psi = 0.280*[#  34]+0.231*[#  26]+0.204*[#  17]+0.154*[#  29]+0.080*[#  32]+
          +0.043*[#  22]+0.002*[#  11]+0.002*[#  16]+0.001*[#  24]+
    |psi|^2 = 0.998
==== e(  20) =    10.95956 eV ==== 
     psi = 0.350*[#  33]+0.199*[#  25]+0.163*[#  30]+0.139*[#  18]+0.087*[#  23]+
          +0.054*[#  20]+0.003*[#  15]+0.001*[#  12]+
    |psi|^2 = 0.998
==== e(  21) =    11.51949 eV ==== 
     psi = 0.258*[#  26]+0.159*[#  17]+0.109*[#  34]+0.084*[#  24]+0.080*[#  29]+
          +0.069*[#  28]+0.068*[#   4]+0.064*[#  19]+0.055*[#  32]+0.035*[#  22]+
          +0.006*[#  16]+0.004*[#  11]+0.003*[#   2]+0.002*[#  14]+
    |psi|^2 = 0.996
==== e(  22) =    12.65563 eV ==== 
     psi = 0.380*[#  22]+0.295*[#  19]+0.229*[#  24]+0.083*[#  17]+
    |psi|^2 = 0.987
==== e(  23) =    13.42138 eV ==== 
     psi = 0.411*[#  20]+0.365*[#  21]+0.112*[#  25]+0.056*[#  31]+0.030*[#  30]+
          +0.016*[#  33]+0.002*[#  23]+0.002*[#  18]+
    |psi|^2 = 0.995
==== e(  24) =    13.42754 eV ==== 
     psi = 0.391*[#  22]+0.236*[#  19]+0.179*[#  24]+0.086*[#  17]+0.068*[#  32]+
          +0.034*[#  29]+
    |psi|^2 = 0.995
==== e(  25) =    13.71266 eV ==== 
     psi = 0.459*[#  23]+0.287*[#  18]+0.170*[#  21]+0.063*[#  20]+0.016*[#  25]+
    |psi|^2 = 0.996
==== e(  26) =    14.28745 eV ==== 
     psi = 0.322*[#  21]+0.197*[#  20]+0.115*[#  23]+0.084*[#   3]+0.083*[#  27]+
          +0.072*[#  18]+0.053*[#  25]+0.021*[#  31]+0.018*[#  30]+0.009*[#  13]+
          +0.009*[#  33]+0.006*[#  12]+0.004*[#   1]+0.003*[#  15]+
    |psi|^2 = 0.996
==== e(  27) =    16.01614 eV ==== 
     psi = 0.313*[#   4]+0.278*[#  28]+0.105*[#  34]+0.080*[#  16]+0.069*[#  29]+
          +0.052*[#  11]+0.035*[#  32]+0.027*[#  14]+0.015*[#   2]+0.008*[#  26]+
          +0.006*[#  17]+0.003*[#  24]+0.002*[#  19]+0.002*[#  22]+
    |psi|^2 = 0.995
==== e(  28) =    16.96797 eV ==== 
     psi = 0.270*[#   3]+0.247*[#  27]+0.112*[#  31]+0.078*[#  13]+0.074*[#  30]+
          +0.051*[#  12]+0.037*[#  33]+0.032*[#  21]+0.026*[#  15]+0.024*[#  20]+
          +0.015*[#   1]+0.013*[#  23]+0.008*[#  18]+0.006*[#  25]+
    |psi|^2 = 0.995
==== e(  29) =    27.14630 eV ==== 
     psi = 
    |psi|^2 = 0.002
==== e(  30) =    27.99189 eV ==== 
     psi = 0.004*[#  22]+0.003*[#  19]+0.002*[#  24]+0.001*[#  17]+
    |psi|^2 = 0.010

 k =   0.0772158179  0.0000000000  0.0000000000
==== e(   1) =   -75.59689 eV ==== 
     psi = 0.905*[#   2]+0.047*[#  16]+0.030*[#  11]+0.016*[#  14]+
    |psi|^2 = 1.000
==== e(   2) =   -71.86045 eV ==== 
     psi = 0.905*[#   1]+0.047*[#  13]+0.030*[#  12]+0.016*[#  15]+
    |psi|^2 = 1.000
==== e(   3) =   -41.99366 eV ==== 
     psi = 0.803*[#   5]+0.185*[#   8]+0.003*[#  16]+0.003*[#   4]+0.003*[#  11]+
          +0.001*[#  29]+
    |psi|^2 = 0.998
==== e(   4) =   -41.49907 eV ==== 
     psi = 0.541*[#   6]+0.442*[#   9]+0.007*[#  15]+0.005*[#  12]+0.002*[#  33]+
          +0.001*[#  30]+
    |psi|^2 = 0.999
==== e(   5) =   -40.83211 eV ==== 
     psi = 0.987*[#  10]+0.003*[#   4]+0.003*[#  16]+0.002*[#  11]+0.001*[#  14]+
          +0.001*[#  34]+
    |psi|^2 = 0.998
==== e(   6) =   -38.08285 eV ==== 
     psi = 0.542*[#   9]+0.445*[#   6]+0.003*[#  13]+0.003*[#   3]+0.002*[#  15]+
    |psi|^2 = 0.998
==== e(   7) =   -37.60012 eV ==== 
     psi = 0.801*[#   8]+0.184*[#   5]+0.008*[#  14]+0.003*[#  11]+0.002*[#  32]+
    |psi|^2 = 0.998
==== e(   8) =   -37.22789 eV ==== 
     psi = 0.988*[#   7]+0.003*[#   3]+0.002*[#  12]+0.002*[#  13]+0.001*[#  15]+
          +0.001*[#  31]+
    |psi|^2 = 0.998
==== e(   9) =    -6.12685 eV ==== 
     psi = 0.620*[#  28]+0.142*[#   4]+0.109*[#  16]+0.071*[#  11]+0.036*[#  14]+
          +0.015*[#   2]+0.001*[#  26]+0.001*[#  10]+0.001*[#  17]+
    |psi|^2 = 1.000
==== e(  10) =    -5.51242 eV ==== 
     psi = 0.619*[#  27]+0.142*[#   3]+0.110*[#  13]+0.071*[#  12]+0.037*[#  15]+
          +0.015*[#   1]+0.001*[#   7]+0.001*[#  21]+
    |psi|^2 = 1.000
==== e(  11) =     7.65834 eV ==== 
     psi = 0.270*[#  34]+0.180*[#  29]+0.127*[#  26]+0.112*[#  17]+0.089*[#  32]+
          +0.052*[#  24]+0.045*[#   4]+0.036*[#  19]+0.032*[#  28]+0.026*[#  22]+
          +0.012*[#  16]+0.008*[#  11]+0.005*[#   2]+0.004*[#  14]+
    |psi|^2 = 0.998
==== e(  12) =     8.79991 eV ==== 
     psi = 0.339*[#  31]+0.231*[#  30]+0.114*[#  33]+0.060*[#  21]+0.060*[#   3]+
          +0.051*[#  27]+0.051*[#  20]+0.023*[#  23]+0.017*[#  18]+0.016*[#  13]+
          +0.011*[#  25]+0.010*[#  12]+0.007*[#   1]+0.005*[#  15]+
    |psi|^2 = 0.996
==== e(  13) =     9.34621 eV ==== 
     psi = 0.326*[#  33]+0.175*[#  30]+0.164*[#  18]+0.160*[#  25]+0.105*[#  23]+
          +0.043*[#  20]+0.017*[#  15]+0.009*[#  12]+
    |psi|^2 = 0.999
==== e(  14) =     9.34643 eV ==== 
     psi = 0.242*[#  34]+0.224*[#  26]+0.201*[#  17]+0.179*[#  29]+0.081*[#  32]+
          +0.045*[#  22]+0.013*[#  16]+0.008*[#  11]+0.004*[#  14]+
    |psi|^2 = 0.999
==== e(  15) =     9.74876 eV ==== 
     psi = 0.408*[#  25]+0.293*[#  18]+0.184*[#  23]+0.111*[#  20]+0.001*[#  33]+
          +0.001*[#  30]+
    |psi|^2 = 0.998
==== e(  16) =    10.33523 eV ==== 
     psi = 0.405*[#  24]+0.341*[#  19]+0.118*[#  26]+0.101*[#  17]+0.027*[#  22]+
          +0.004*[#  29]+0.002*[#  32]+
    |psi|^2 = 0.999
==== e(  17) =    10.46187 eV ==== 
     psi = 0.428*[#  31]+0.280*[#  30]+0.147*[#  33]+0.052*[#  21]+0.041*[#  20]+
          +0.016*[#  13]+0.015*[#  25]+0.011*[#  12]+0.006*[#  15]+
    |psi|^2 = 0.996
==== e(  18) =    10.46204 eV ==== 
     psi = 0.567*[#  32]+0.281*[#  29]+0.040*[#  24]+0.037*[#  22]+0.022*[#  14]+
          +0.018*[#  19]+0.017*[#  17]+0.010*[#  11]+0.002*[#  26]+
    |psi|^2 = 0.996
==== e(  19) =    11.10595 eV ==== 
     psi = 0.255*[#  34]+0.247*[#  26]+0.229*[#  17]+0.141*[#  29]+0.070*[#  32]+
          +0.048*[#  22]+0.002*[#  11]+0.002*[#  16]+0.001*[#  24]+0.001*[#  14]+
    |psi|^2 = 0.998
==== e(  20) =    11.10728 eV ==== 
     psi = 0.315*[#  33]+0.216*[#  25]+0.155*[#  18]+0.152*[#  30]+0.096*[#  23]+
          +0.059*[#  20]+0.003*[#  15]+0.002*[#  12]+
    |psi|^2 = 0.998
==== e(  21) =    11.64430 eV ==== 
     psi = 0.267*[#  26]+0.160*[#  17]+0.086*[#  28]+0.086*[#  24]+0.085*[#  34]+
          +0.070*[#   4]+0.068*[#  29]+0.066*[#  19]+0.045*[#  32]+0.035*[#  22]+
          +0.012*[#  16]+0.007*[#  11]+0.004*[#   2]+0.004*[#  14]+
    |psi|^2 = 0.996
==== e(  22) =    12.54461 eV ==== 
     psi = 0.388*[#  22]+0.288*[#  19]+0.225*[#  24]+0.084*[#  17]+
    |psi|^2 = 0.985
==== e(  23) =    13.61806 eV ==== 
     psi = 0.440*[#  20]+0.300*[#  21]+0.120*[#  25]+0.060*[#  31]+0.033*[#  30]+
          +0.018*[#  33]+0.015*[#  23]+0.010*[#  18]+
    |psi|^2 = 0.996
==== e(  24) =    13.62741 eV ==== 
     psi = 0.379*[#  22]+0.238*[#  19]+0.180*[#  24]+0.084*[#  17]+0.076*[#  32]+
          +0.038*[#  29]+
    |psi|^2 = 0.996
==== e(  25) =    13.75795 eV ==== 
     psi = 0.446*[#  23]+0.278*[#  18]+0.226*[#  21]+0.032*[#  20]+0.008*[#  25]+
          +0.003*[#  31]+0.001*[#  30]+
    |psi|^2 = 0.996
==== e(  26) =    14.41540 eV ==== 
     psi = 0.315*[#  21]+0.188*[#  20]+0.111*[#  23]+0.101*[#  27]+0.087*[#   3]+
          +0.070*[#  18]+0.050*[#  25]+0.017*[#  31]+0.015*[#  30]+0.015*[#  13]+
          +0.010*[#  12]+0.007*[#  33]+0.005*[#  15]+0.004*[#   1]+
    |psi|^2 = 0.996
==== e(  27) =    16.70970 eV ==== 
     psi = 0.269*[#   4]+0.245*[#  28]+0.129*[#  34]+0.092*[#  16]+0.085*[#  29]+
          +0.059*[#  11]+0.043*[#  32]+0.031*[#  14]+0.013*[#   2]+0.011*[#  26]+
          +0.008*[#  17]+0.004*[#  24]+0.003*[#  19]+0.002*[#  22]+
    |psi|^2 = 0.995
==== e(  28) =    17.71058 eV ==== 
     psi = 0.225*[#   3]+0.213*[#  27]+0.135*[#  31]+0.090*[#  30]+0.089*[#  13]+
          +0.058*[#  12]+0.045*[#  33]+0.037*[#  21]+0.030*[#  15]+0.028*[#  20]+
          +0.015*[#  23]+0.013*[#   1]+0.010*[#  18]+0.007*[#  25]+
    |psi|^2 = 0.995
==== e(  29) =    26.64380 eV ==== 
     psi = 
    |psi|^2 = 0.002
==== e(  30) =    27.57287 eV ==== 
     psi = 0.005*[#  22]+0.004*[#  19]+0.003*[#  24]+0.001*[#  17]+
    |psi|^2 = 0.013

 k =   0.0926589815  0.0000000000  0.0000000000
==== e(   1) =   -75.59594 eV ==== 
     psi = 0.905*[#   2]+0.046*[#  16]+0.029*[#  11]+0.015*[#  14]+0.003*[#   4]+
    |psi|^2 = 1.000
==== e(   2) =   -71.85938 eV ==== 
     psi = 0.904*[#   1]+0.047*[#  13]+0.030*[#  12]+0.016*[#  15]+0.002*[#   3]+
    |psi|^2 = 1.000
==== e(   3) =   -41.99548 eV ==== 
     psi = 0.803*[#   5]+0.185*[#   8]+0.004*[#  16]+0.003*[#   4]+0.001*[#  11]+
    |psi|^2 = 0.998
==== e(   4) =   -41.50118 eV ==== 
     psi = 0.542*[#   6]+0.443*[#   9]+0.006*[#  15]+0.004*[#  12]+0.002*[#  33]+
          +0.001*[#  30]+
    |psi|^2 = 0.998
==== e(   5) =   -40.83429 eV ==== 
     psi = 0.988*[#  10]+0.003*[#  11]+0.003*[#   4]+0.002*[#  14]+
    |psi|^2 = 0.998
==== e(   6) =   -38.08563 eV ==== 
     psi = 0.543*[#   9]+0.445*[#   6]+0.004*[#  13]+0.002*[#   3]+
    |psi|^2 = 0.998
==== e(   7) =   -37.60276 eV ==== 
     psi = 0.802*[#   8]+0.184*[#   5]+0.006*[#  14]+0.003*[#  32]+0.002*[#  11]+
    |psi|^2 = 0.998
==== e(   8) =   -37.23097 eV ==== 
     psi = 0.988*[#   7]+0.003*[#  12]+0.002*[#   3]+0.002*[#  15]+
    |psi|^2 = 0.998
==== e(   9) =    -6.00232 eV ==== 
     psi = 0.637*[#  28]+0.114*[#  16]+0.113*[#   4]+0.074*[#  11]+0.038*[#  14]+
          +0.013*[#   2]+0.003*[#  26]+0.002*[#  17]+0.002*[#  10]+
    |psi|^2 = 1.000
==== e(  10) =    -5.38549 eV ==== 
     psi = 0.636*[#  27]+0.115*[#  13]+0.112*[#   3]+0.075*[#  12]+0.038*[#  15]+
          +0.014*[#   1]+0.002*[#  21]+0.002*[#   7]+0.002*[#  20]+0.001*[#   6]+
    |psi|^2 = 1.000
==== e(  11) =     7.27087 eV ==== 
     psi = 0.270*[#  34]+0.181*[#  29]+0.119*[#  26]+0.103*[#  17]+0.090*[#  32]+
          +0.049*[#  24]+0.045*[#   4]+0.034*[#  19]+0.033*[#  28]+0.025*[#  22]+
          +0.021*[#  16]+0.014*[#  11]+0.007*[#  14]+0.006*[#   2]+
    |psi|^2 = 0.998
==== e(  12) =     8.37547 eV ==== 
     psi = 0.328*[#  31]+0.222*[#  30]+0.110*[#  33]+0.061*[#  21]+0.056*[#   3]+
          +0.052*[#  27]+0.051*[#  20]+0.027*[#  13]+0.024*[#  23]+0.017*[#  12]+
          +0.017*[#  18]+0.012*[#  25]+0.009*[#  15]+0.008*[#   1]+
    |psi|^2 = 0.996
==== e(  13) =     9.26002 eV ==== 
     psi = 0.354*[#  33]+0.189*[#  30]+0.147*[#  18]+0.144*[#  25]+0.094*[#  23]+
          +0.039*[#  20]+0.020*[#  15]+0.011*[#  12]+
    |psi|^2 = 0.999
==== e(  14) =     9.26025 eV ==== 
     psi = 0.264*[#  34]+0.201*[#  26]+0.193*[#  29]+0.180*[#  17]+0.087*[#  32]+
          +0.041*[#  22]+0.016*[#  16]+0.010*[#  11]+0.005*[#  14]+
    |psi|^2 = 0.999
==== e(  15) =     9.66302 eV ==== 
     psi = 0.405*[#  25]+0.294*[#  18]+0.185*[#  23]+0.110*[#  20]+
    |psi|^2 = 0.997
==== e(  16) =    10.33449 eV ==== 
     psi = 0.515*[#  32]+0.263*[#  29]+0.115*[#  19]+0.058*[#  22]+0.024*[#  14]+
          +0.012*[#  11]+0.007*[#  26]+0.002*[#  24]+0.001*[#   8]+
    |psi|^2 = 0.997
==== e(  17) =    10.33841 eV ==== 
     psi = 0.423*[#  31]+0.277*[#  30]+0.147*[#  33]+0.053*[#  21]+0.041*[#  20]+
          +0.019*[#  13]+0.015*[#  25]+0.013*[#  12]+0.007*[#  15]+
    |psi|^2 = 0.997
==== e(  18) =    10.37496 eV ==== 
     psi = 0.442*[#  24]+0.246*[#  19]+0.120*[#  17]+0.112*[#  26]+0.051*[#  32]+
          +0.017*[#  29]+0.007*[#  22]+0.002*[#  14]+
    |psi|^2 = 0.999
==== e(  19) =    11.21292 eV ==== 
     psi = 0.263*[#  26]+0.254*[#  17]+0.231*[#  34]+0.127*[#  29]+0.062*[#  32]+
          +0.053*[#  22]+0.002*[#  11]+0.002*[#  24]+0.002*[#  16]+0.001*[#  14]+
    |psi|^2 = 0.998
==== e(  20) =    11.21478 eV ==== 
     psi = 0.282*[#  33]+0.235*[#  25]+0.170*[#  18]+0.137*[#  30]+0.105*[#  23]+
          +0.064*[#  20]+0.003*[#  15]+0.002*[#  12]+
    |psi|^2 = 0.998
==== e(  21) =    11.72892 eV ==== 
     psi = 0.279*[#  26]+0.160*[#  17]+0.098*[#  28]+0.087*[#  24]+0.068*[#  34]+
          +0.068*[#  19]+0.064*[#   4]+0.059*[#  29]+0.038*[#  32]+0.036*[#  22]+
          +0.017*[#  16]+0.011*[#  11]+0.005*[#  14]+0.005*[#   2]+
    |psi|^2 = 0.995
==== e(  22) =    12.42090 eV ==== 
     psi = 0.393*[#  22]+0.283*[#  19]+0.224*[#  24]+0.083*[#  17]+
    |psi|^2 = 0.983
==== e(  23) =    13.77355 eV ==== 
     psi = 0.416*[#  20]+0.239*[#  23]+0.151*[#  18]+0.111*[#  25]+0.029*[#  31]+
          +0.027*[#  21]+0.016*[#  30]+0.008*[#  33]+
    |psi|^2 = 0.997
==== e(  24) =    13.80881 eV ==== 
     psi = 0.375*[#  22]+0.242*[#  19]+0.182*[#  24]+0.083*[#  17]+0.077*[#  32]+
          +0.039*[#  29]+
    |psi|^2 = 0.997
==== e(  25) =    13.83138 eV ==== 
     psi = 0.495*[#  21]+0.223*[#  23]+0.138*[#  18]+0.060*[#  20]+0.034*[#  31]+
          +0.018*[#  30]+0.017*[#  25]+0.010*[#  33]+
    |psi|^2 = 0.997
==== e(  26) =    14.52902 eV ==== 
     psi = 0.316*[#  21]+0.183*[#  20]+0.112*[#  27]+0.110*[#  23]+0.082*[#   3]+
          +0.069*[#  18]+0.049*[#  25]+0.019*[#  13]+0.014*[#  30]+0.013*[#  31]+
          +0.013*[#  12]+0.007*[#  15]+0.006*[#  33]+0.004*[#   1]+
    |psi|^2 = 0.996
==== e(  27) =    17.36854 eV ==== 
     psi = 0.249*[#   4]+0.214*[#  28]+0.145*[#  34]+0.099*[#  16]+0.096*[#  29]+
          +0.064*[#  11]+0.048*[#  32]+0.033*[#  14]+0.012*[#  26]+0.011*[#   2]+
          +0.009*[#  17]+0.005*[#  24]+0.003*[#  19]+0.003*[#  22]+0.001*[#  10]+
    |psi|^2 = 0.995
==== e(  28) =    18.40640 eV ==== 
     psi = 0.206*[#   3]+0.184*[#  27]+0.151*[#  31]+0.100*[#  30]+0.096*[#  13]+
          +0.062*[#  12]+0.050*[#  33]+0.039*[#  21]+0.032*[#  15]+0.029*[#  20]+
          +0.015*[#  23]+0.012*[#   1]+0.010*[#  18]+0.008*[#  25]+0.001*[#   7]+
    |psi|^2 = 0.995
==== e(  29) =    26.20082 eV ==== 
     psi = 0.001*[#  25]+
    |psi|^2 = 0.002
==== e(  30) =    27.20643 eV ==== 
     psi = 0.006*[#  22]+0.005*[#  19]+0.003*[#  24]+0.002*[#  17]+
    |psi|^2 = 0.015

 k =   0.1081021450  0.0000000000  0.0000000000
==== e(   1) =   -75.59462 eV ==== 
     psi = 0.909*[#   2]+0.043*[#  16]+0.027*[#  11]+0.014*[#  14]+0.005*[#   4]+
    |psi|^2 = 1.000
==== e(   2) =   -71.85796 eV ==== 
     psi = 0.909*[#   1]+0.043*[#  13]+0.028*[#  12]+0.014*[#  15]+0.004*[#   3]+
    |psi|^2 = 1.000
==== e(   3) =   -41.99571 eV ==== 
     psi = 0.804*[#   5]+0.185*[#   8]+0.005*[#  16]+0.002*[#   4]+0.001*[#  34]+
    |psi|^2 = 0.998
==== e(   4) =   -41.50212 eV ==== 
     psi = 0.543*[#   6]+0.445*[#   9]+0.005*[#  15]+0.003*[#  12]+0.002*[#  33]+
          +0.001*[#  30]+
    |psi|^2 = 0.998
==== e(   5) =   -40.83492 eV ==== 
     psi = 0.988*[#  10]+0.003*[#  11]+0.002*[#   4]+0.002*[#  14]+
    |psi|^2 = 0.998
==== e(   6) =   -38.08700 eV ==== 
     psi = 0.543*[#   9]+0.445*[#   6]+0.005*[#  13]+0.002*[#   3]+0.001*[#  31]+
    |psi|^2 = 0.998
==== e(   7) =   -37.60438 eV ==== 
     psi = 0.804*[#   8]+0.185*[#   5]+0.004*[#  14]+0.003*[#  32]+0.002*[#  11]+
          +0.001*[#  29]+
    |psi|^2 = 0.998
==== e(   8) =   -37.23269 eV ==== 
     psi = 0.988*[#   7]+0.003*[#  12]+0.002*[#   3]+0.002*[#  15]+
    |psi|^2 = 0.998
==== e(   9) =    -5.87567 eV ==== 
     psi = 0.660*[#  28]+0.112*[#  16]+0.091*[#   4]+0.073*[#  11]+0.037*[#  14]+
          +0.011*[#   2]+0.005*[#  26]+0.004*[#  17]+0.002*[#  10]+0.002*[#  24]+
          +0.001*[#   5]+0.001*[#  19]+
    |psi|^2 = 1.000
==== e(  10) =    -5.25571 eV ==== 
     psi = 0.660*[#  27]+0.112*[#  13]+0.090*[#   3]+0.073*[#  12]+0.037*[#  15]+
          +0.012*[#   1]+0.004*[#  21]+0.003*[#  20]+0.002*[#   7]+0.002*[#  23]+
          +0.001*[#   6]+0.001*[#  18]+
    |psi|^2 = 1.000
==== e(  11) =     6.97312 eV ==== 
     psi = 0.272*[#  34]+0.182*[#  29]+0.111*[#  26]+0.095*[#  17]+0.090*[#  32]+
          +0.045*[#  24]+0.044*[#   4]+0.033*[#  16]+0.031*[#  19]+0.031*[#  28]+
          +0.023*[#  22]+0.022*[#  11]+0.011*[#  14]+0.007*[#   2]+
    |psi|^2 = 0.998
==== e(  12) =     8.03416 eV ==== 
     psi = 0.321*[#  31]+0.217*[#  30]+0.107*[#  33]+0.059*[#  21]+0.051*[#   3]+
          +0.050*[#  27]+0.049*[#  20]+0.039*[#  13]+0.026*[#  12]+0.023*[#  23]+
          +0.017*[#  18]+0.013*[#  15]+0.012*[#  25]+0.010*[#   1]+
    |psi|^2 = 0.996
==== e(  13) =     9.20265 eV ==== 
     psi = 0.380*[#  33]+0.202*[#  30]+0.132*[#  18]+0.127*[#  25]+0.085*[#  23]+
          +0.034*[#  20]+0.024*[#  15]+0.013*[#  12]+
    |psi|^2 = 0.999
==== e(  14) =     9.20293 eV ==== 
     psi = 0.285*[#  34]+0.206*[#  29]+0.180*[#  26]+0.161*[#  17]+0.093*[#  32]+
          +0.036*[#  22]+0.019*[#  16]+0.013*[#  11]+0.006*[#  14]+
    |psi|^2 = 0.999
==== e(  15) =     9.57205 eV ==== 
     psi = 0.405*[#  25]+0.294*[#  18]+0.186*[#  23]+0.109*[#  20]+
    |psi|^2 = 0.997
==== e(  16) =    10.23375 eV ==== 
     psi = 0.565*[#  32]+0.279*[#  29]+0.046*[#  19]+0.044*[#  22]+0.031*[#  14]+
          +0.015*[#  11]+0.010*[#  24]+0.006*[#  17]+0.001*[#   8]+
    |psi|^2 = 0.997
==== e(  17) =    10.23506 eV ==== 
     psi = 0.423*[#  31]+0.276*[#  30]+0.148*[#  33]+0.050*[#  21]+0.039*[#  20]+
          +0.023*[#  13]+0.015*[#  12]+0.014*[#  25]+0.008*[#  15]+
    |psi|^2 = 0.997
==== e(  18) =    10.41064 eV ==== 
     psi = 0.431*[#  24]+0.314*[#  19]+0.117*[#  26]+0.115*[#  17]+0.018*[#  22]+
          +0.004*[#  32]+
    |psi|^2 = 0.999
==== e(  19) =    11.28396 eV ==== 
     psi = 0.279*[#  17]+0.279*[#  26]+0.207*[#  34]+0.112*[#  29]+0.057*[#  22]+
          +0.054*[#  32]+0.003*[#  11]+0.002*[#  24]+0.002*[#  16]+0.001*[#  14]+
    |psi|^2 = 0.998
==== e(  20) =    11.28642 eV ==== 
     psi = 0.253*[#  25]+0.250*[#  33]+0.185*[#  18]+0.123*[#  30]+0.114*[#  23]+
          +0.068*[#  20]+0.004*[#  15]+0.002*[#  12]+
    |psi|^2 = 0.998
==== e(  21) =    11.77797 eV ==== 
     psi = 0.292*[#  26]+0.161*[#  17]+0.105*[#  28]+0.089*[#  24]+0.070*[#  19]+
          +0.056*[#  34]+0.054*[#   4]+0.052*[#  29]+0.036*[#  22]+0.034*[#  32]+
          +0.021*[#  16]+0.013*[#  11]+0.006*[#  14]+0.005*[#   2]+
    |psi|^2 = 0.994
==== e(  22) =    12.29055 eV ==== 
     psi = 0.396*[#  22]+0.279*[#  19]+0.224*[#  24]+0.082*[#  17]+
    |psi|^2 = 0.981
==== e(  23) =    13.84358 eV ==== 
     psi = 0.425*[#  23]+0.267*[#  18]+0.208*[#  20]+0.054*[#  25]+0.035*[#  21]+
          +0.004*[#  31]+0.002*[#  30]+
    |psi|^2 = 0.996
==== e(  24) =    13.96330 eV ==== 
     psi = 0.375*[#  22]+0.246*[#  19]+0.184*[#  24]+0.083*[#  17]+0.073*[#  32]+
          +0.036*[#  29]+
    |psi|^2 = 0.998
==== e(  25) =    13.96687 eV ==== 
     psi = 0.486*[#  21]+0.275*[#  20]+0.076*[#  25]+0.056*[#  31]+0.036*[#  23]+
          +0.030*[#  30]+0.022*[#  18]+0.017*[#  33]+
    |psi|^2 = 0.998
==== e(  26) =    14.62846 eV ==== 
     psi = 0.323*[#  21]+0.180*[#  20]+0.116*[#  27]+0.111*[#  23]+0.072*[#   3]+
          +0.069*[#  18]+0.048*[#  25]+0.021*[#  13]+0.014*[#  12]+0.012*[#  30]+
          +0.011*[#  31]+0.007*[#  15]+0.006*[#  33]+0.004*[#   1]+
    |psi|^2 = 0.996
==== e(  27) =    17.99296 eV ==== 
     psi = 0.254*[#   4]+0.185*[#  28]+0.154*[#  34]+0.103*[#  16]+0.102*[#  29]+
          +0.066*[#  11]+0.051*[#  32]+0.034*[#  14]+0.013*[#  26]+0.010*[#  17]+
          +0.009*[#   2]+0.005*[#  24]+0.003*[#  19]+0.003*[#  22]+0.001*[#  10]+
    |psi|^2 = 0.994
==== e(  28) =    19.05375 eV ==== 
     psi = 0.210*[#   3]+0.159*[#  31]+0.158*[#  27]+0.106*[#  30]+0.101*[#  13]+
          +0.065*[#  12]+0.053*[#  33]+0.037*[#  21]+0.034*[#  15]+0.028*[#  20]+
          +0.015*[#  23]+0.010*[#  18]+0.009*[#   1]+0.007*[#  25]+0.001*[#   7]+
    |psi|^2 = 0.994
==== e(  29) =    25.81680 eV ==== 
     psi = 0.001*[#  25]+
    |psi|^2 = 0.003
==== e(  30) =    26.89253 eV ==== 
     psi = 0.007*[#  22]+0.005*[#  19]+0.004*[#  24]+0.002*[#  17]+
    |psi|^2 = 0.018

 k =   0.1235453086  0.0000000000  0.0000000000
==== e(   1) =   -75.59527 eV ==== 
     psi = 0.918*[#   2]+0.038*[#  16]+0.024*[#  11]+0.013*[#  14]+0.006*[#   4]+
    |psi|^2 = 1.000
==== e(   2) =   -71.85865 eV ==== 
     psi = 0.918*[#   1]+0.038*[#  13]+0.024*[#  12]+0.013*[#  15]+0.006*[#   3]+
    |psi|^2 = 1.000
==== e(   3) =   -42.00929 eV ==== 
     psi = 0.804*[#   5]+0.185*[#   8]+0.005*[#  16]+0.002*[#  34]+0.002*[#   4]+
    |psi|^2 = 0.998
==== e(   4) =   -41.51498 eV ==== 
     psi = 0.543*[#   6]+0.445*[#   9]+0.004*[#  15]+0.002*[#  33]+0.002*[#  12]+
          +0.002*[#  30]+
    |psi|^2 = 0.998
==== e(   5) =   -40.84889 eV ==== 
     psi = 0.988*[#  10]+0.004*[#  11]+0.002*[#  14]+0.002*[#   4]+0.001*[#  29]+
    |psi|^2 = 0.998
==== e(   6) =   -38.10062 eV ==== 
     psi = 0.543*[#   9]+0.445*[#   6]+0.005*[#  13]+0.002*[#  31]+0.002*[#   3]+
    |psi|^2 = 0.998
==== e(   7) =   -37.61670 eV ==== 
     psi = 0.805*[#   8]+0.185*[#   5]+0.003*[#  32]+0.003*[#  14]+0.001*[#  11]+
          +0.001*[#  29]+
    |psi|^2 = 0.998
==== e(   8) =   -37.24654 eV ==== 
     psi = 0.988*[#   7]+0.004*[#  12]+0.002*[#  15]+0.002*[#   3]+0.001*[#  30]+
    |psi|^2 = 0.998
==== e(   9) =    -5.75266 eV ==== 
     psi = 0.690*[#  28]+0.102*[#  16]+0.074*[#   4]+0.067*[#  11]+0.034*[#  14]+
          +0.009*[#   2]+0.007*[#  26]+0.006*[#  17]+0.003*[#  24]+0.002*[#  10]+
          +0.002*[#  19]+0.001*[#  22]+0.001*[#   5]+
    |psi|^2 = 1.000
==== e(  10) =    -5.12895 eV ==== 
     psi = 0.690*[#  27]+0.103*[#  13]+0.074*[#   3]+0.067*[#  12]+0.034*[#  15]+
          +0.009*[#   1]+0.006*[#  21]+0.005*[#  20]+0.003*[#  23]+0.002*[#   7]+
          +0.002*[#  18]+0.001*[#   6]+0.001*[#  25]+
    |psi|^2 = 0.999
==== e(  11) =     6.75596 eV ==== 
     psi = 0.277*[#  34]+0.185*[#  29]+0.100*[#  26]+0.092*[#  32]+0.086*[#  17]+
          +0.045*[#  16]+0.043*[#   4]+0.041*[#  24]+0.030*[#  11]+0.028*[#  19]+
          +0.027*[#  28]+0.021*[#  22]+0.015*[#  14]+0.008*[#   2]+0.002*[#  10]+
          +0.001*[#   5]+
    |psi|^2 = 0.998
==== e(  12) =     7.76546 eV ==== 
     psi = 0.319*[#  31]+0.214*[#  30]+0.106*[#  33]+0.055*[#  21]+0.052*[#  13]+
          +0.047*[#   3]+0.045*[#  20]+0.044*[#  27]+0.034*[#  12]+0.022*[#  23]+
          +0.017*[#  15]+0.015*[#  18]+0.011*[#  25]+0.010*[#   1]+0.002*[#   7]+
          +0.001*[#   6]+
    |psi|^2 = 0.996
==== e(  13) =     9.15906 eV ==== 
     psi = 0.408*[#  33]+0.218*[#  30]+0.117*[#  18]+0.107*[#  25]+0.075*[#  23]+
          +0.029*[#  20]+0.028*[#  15]+0.015*[#  12]+0.001*[#   9]+
    |psi|^2 = 0.999
==== e(  14) =     9.15941 eV ==== 
     psi = 0.308*[#  34]+0.221*[#  29]+0.156*[#  26]+0.139*[#  17]+0.099*[#  32]+
          +0.031*[#  22]+0.022*[#  16]+0.015*[#  11]+0.006*[#  14]+
    |psi|^2 = 0.999
==== e(  15) =     9.47988 eV ==== 
     psi = 0.405*[#  25]+0.294*[#  18]+0.186*[#  23]+0.109*[#  20]+0.001*[#  30]+
          +0.001*[#  33]+
    |psi|^2 = 0.996
==== e(  16) =    10.13116 eV ==== 
     psi = 0.572*[#  32]+0.279*[#  29]+0.038*[#  22]+0.035*[#  14]+0.035*[#  19]+
          +0.017*[#  11]+0.013*[#  24]+0.007*[#  17]+0.002*[#   8]+
    |psi|^2 = 0.997
==== e(  17) =    10.13208 eV ==== 
     psi = 0.425*[#  31]+0.277*[#  30]+0.150*[#  33]+0.044*[#  21]+0.034*[#  20]+
          +0.026*[#  13]+0.017*[#  12]+0.012*[#  25]+0.009*[#  15]+0.001*[#   7]+
    |psi|^2 = 0.997
==== e(  18) =    10.44945 eV ==== 
     psi = 0.424*[#  24]+0.323*[#  19]+0.116*[#  17]+0.115*[#  26]+0.019*[#  22]+
          +0.001*[#  32]+
    |psi|^2 = 0.999
==== e(  19) =    11.30763 eV ==== 
     psi = 0.307*[#  17]+0.297*[#  26]+0.180*[#  34]+0.095*[#  29]+0.061*[#  22]+
          +0.046*[#  32]+0.003*[#  11]+0.003*[#  24]+0.002*[#  16]+0.002*[#  14]+
          +0.001*[#  19]+
    |psi|^2 = 0.999
==== e(  20) =    11.31075 eV ==== 
     psi = 0.273*[#  25]+0.215*[#  33]+0.201*[#  18]+0.123*[#  23]+0.106*[#  30]+
          +0.074*[#  20]+0.004*[#  15]+0.002*[#  12]+
    |psi|^2 = 0.999
==== e(  21) =    11.78173 eV ==== 
     psi = 0.309*[#  26]+0.162*[#  17]+0.108*[#  28]+0.092*[#  24]+0.073*[#  19]+
          +0.047*[#  34]+0.046*[#  29]+0.042*[#   4]+0.037*[#  22]+0.030*[#  32]+
          +0.023*[#  16]+0.014*[#  11]+0.007*[#  14]+0.004*[#   2]+
    |psi|^2 = 0.993
==== e(  22) =    12.15948 eV ==== 
     psi = 0.398*[#  22]+0.275*[#  19]+0.226*[#  24]+0.080*[#  17]+
    |psi|^2 = 0.979
==== e(  23) =    13.89883 eV ==== 
     psi = 0.443*[#  23]+0.278*[#  18]+0.170*[#  20]+0.059*[#  21]+0.044*[#  25]+
          +0.001*[#  31]+
    |psi|^2 = 0.997
==== e(  24) =    14.08280 eV ==== 
     psi = 0.379*[#  22]+0.251*[#  19]+0.188*[#  24]+0.084*[#  17]+0.064*[#  32]+
          +0.032*[#  29]+
    |psi|^2 = 0.999
==== e(  25) =    14.08351 eV ==== 
     psi = 0.462*[#  21]+0.323*[#  20]+0.088*[#  25]+0.051*[#  31]+0.027*[#  30]+
          +0.019*[#  23]+0.015*[#  33]+0.011*[#  18]+
    |psi|^2 = 0.999
==== e(  26) =    14.70481 eV ==== 
     psi = 0.336*[#  21]+0.181*[#  20]+0.114*[#  27]+0.113*[#  23]+0.070*[#  18]+
          +0.059*[#   3]+0.048*[#  25]+0.022*[#  13]+0.015*[#  12]+0.012*[#  30]+
          +0.010*[#  31]+0.007*[#  15]+0.005*[#  33]+0.003*[#   1]+
    |psi|^2 = 0.996
==== e(  27) =    18.62404 eV ==== 
     psi = 0.283*[#   4]+0.156*[#  28]+0.155*[#  34]+0.103*[#  16]+0.103*[#  29]+
          +0.066*[#  11]+0.052*[#  32]+0.034*[#  14]+0.013*[#  26]+0.010*[#  17]+
          +0.005*[#   2]+0.005*[#  24]+0.003*[#  19]+0.003*[#  22]+0.001*[#  10]+
    |psi|^2 = 0.992
==== e(  28) =    19.68927 eV ==== 
     psi = 0.238*[#   3]+0.160*[#  31]+0.134*[#  27]+0.106*[#  30]+0.103*[#  13]+
          +0.067*[#  12]+0.053*[#  33]+0.034*[#  15]+0.033*[#  21]+0.025*[#  20]+
          +0.013*[#  23]+0.009*[#  18]+0.007*[#  25]+0.006*[#   1]+0.001*[#   7]+
    |psi|^2 = 0.992
==== e(  29) =    25.48765 eV ==== 
     psi = 0.001*[#  25]+
    |psi|^2 = 0.003
==== e(  30) =    26.62721 eV ==== 
     psi = 0.008*[#  22]+0.006*[#  19]+0.004*[#  24]+0.002*[#  17]+
    |psi|^2 = 0.020

 k =   0.1389884722  0.0000000000  0.0000000000
==== e(   1) =   -75.59419 eV ==== 
     psi = 0.929*[#   2]+0.032*[#  16]+0.020*[#  11]+0.011*[#  14]+0.008*[#   4]+
    |psi|^2 = 1.000
==== e(   2) =   -71.85746 eV ==== 
     psi = 0.929*[#   1]+0.032*[#  13]+0.021*[#  12]+0.011*[#  15]+0.007*[#   3]+
    |psi|^2 = 1.000
==== e(   3) =   -42.01136 eV ==== 
     psi = 0.803*[#   5]+0.185*[#   8]+0.005*[#  16]+0.003*[#  34]+0.001*[#   4]+
    |psi|^2 = 0.998
==== e(   4) =   -41.51619 eV ==== 
     psi = 0.544*[#   6]+0.446*[#   9]+0.003*[#  15]+0.003*[#  33]+0.002*[#  30]+
          +0.001*[#  12]+
    |psi|^2 = 0.998
==== e(   5) =   -40.85130 eV ==== 
     psi = 0.988*[#  10]+0.004*[#  11]+0.002*[#  14]+0.002*[#  29]+0.001*[#   4]+
    |psi|^2 = 0.998
==== e(   6) =   -38.10366 eV ==== 
     psi = 0.543*[#   9]+0.444*[#   6]+0.005*[#  13]+0.003*[#  31]+0.001*[#   3]+
    |psi|^2 = 0.998
==== e(   7) =   -37.61852 eV ==== 
     psi = 0.805*[#   8]+0.185*[#   5]+0.003*[#  32]+0.002*[#  14]+0.001*[#  29]+
          +0.001*[#  11]+
    |psi|^2 = 0.998
==== e(   8) =   -37.24986 eV ==== 
     psi = 0.987*[#   7]+0.004*[#  12]+0.002*[#  30]+0.002*[#  15]+0.001*[#   3]+
          +0.001*[#  33]+
    |psi|^2 = 0.998
==== e(   9) =    -5.64335 eV ==== 
     psi = 0.724*[#  28]+0.088*[#  16]+0.062*[#   4]+0.058*[#  11]+0.029*[#  14]+
          +0.011*[#  26]+0.008*[#  17]+0.006*[#   2]+0.004*[#  24]+0.003*[#  19]+
          +0.002*[#  22]+0.002*[#  10]+0.001*[#   5]+
    |psi|^2 = 1.000
==== e(  10) =    -5.01511 eV ==== 
     psi = 0.724*[#  27]+0.089*[#  13]+0.062*[#   3]+0.059*[#  12]+0.030*[#  15]+
          +0.009*[#  21]+0.007*[#  20]+0.007*[#   1]+0.004*[#  23]+0.002*[#  18]+
          +0.002*[#   7]+0.002*[#  25]+0.001*[#   6]+
    |psi|^2 = 0.999
==== e(  11) =     6.65733 eV ==== 
     psi = 0.283*[#  34]+0.188*[#  29]+0.094*[#  32]+0.089*[#  26]+0.076*[#  17]+
          +0.058*[#  16]+0.039*[#  11]+0.039*[#   4]+0.036*[#  24]+0.025*[#  19]+
          +0.021*[#  28]+0.019*[#  14]+0.018*[#  22]+0.008*[#   2]+0.003*[#  10]+
          +0.002*[#   5]+
    |psi|^2 = 0.998
==== e(  12) =     7.61061 eV ==== 
     psi = 0.319*[#  31]+0.214*[#  30]+0.107*[#  33]+0.066*[#  13]+0.049*[#  21]+
          +0.044*[#  12]+0.041*[#   3]+0.040*[#  20]+0.036*[#  27]+0.022*[#  15]+
          +0.019*[#  23]+0.014*[#  18]+0.010*[#   1]+0.010*[#  25]+0.003*[#   7]+
          +0.002*[#   6]+0.001*[#   9]+
    |psi|^2 = 0.996
==== e(  13) =     9.15468 eV ==== 
     psi = 0.435*[#  33]+0.233*[#  30]+0.105*[#  18]+0.085*[#  25]+0.067*[#  23]+
          +0.032*[#  15]+0.023*[#  20]+0.017*[#  12]+0.001*[#   9]+
    |psi|^2 = 0.999
==== e(  14) =     9.15522 eV ==== 
     psi = 0.330*[#  34]+0.236*[#  29]+0.132*[#  26]+0.119*[#  17]+0.105*[#  32]+
          +0.026*[#  22]+0.025*[#  16]+0.017*[#  11]+0.007*[#  14]+0.001*[#  10]+
    |psi|^2 = 0.999
==== e(  15) =     9.39064 eV ==== 
     psi = 0.408*[#  25]+0.291*[#  18]+0.185*[#  23]+0.109*[#  20]+0.002*[#  33]+
          +0.001*[#  30]+
    |psi|^2 = 0.996
==== e(  16) =    10.06833 eV ==== 
     psi = 0.580*[#  32]+0.281*[#  29]+0.039*[#  14]+0.031*[#  22]+0.028*[#  19]+
          +0.019*[#  11]+0.012*[#  24]+0.006*[#  17]+0.002*[#   8]+
    |psi|^2 = 0.997
==== e(  17) =    10.06909 eV ==== 
     psi = 0.430*[#  31]+0.279*[#  30]+0.153*[#  33]+0.037*[#  21]+0.029*[#  13]+
          +0.029*[#  20]+0.019*[#  12]+0.010*[#  15]+0.010*[#  25]+0.001*[#   7]+
    |psi|^2 = 0.997
==== e(  18) =    10.48774 eV ==== 
     psi = 0.420*[#  24]+0.328*[#  19]+0.118*[#  17]+0.113*[#  26]+0.020*[#  22]+
    |psi|^2 = 0.999
==== e(  19) =    11.30366 eV ==== 
     psi = 0.335*[#  17]+0.313*[#  26]+0.154*[#  34]+0.079*[#  29]+0.066*[#  22]+
          +0.038*[#  32]+0.004*[#  24]+0.004*[#  11]+0.002*[#  14]+0.002*[#  16]+
          +0.001*[#  19]+0.001*[#  28]+
    |psi|^2 = 0.999
==== e(  20) =    11.30751 eV ==== 
     psi = 0.292*[#  25]+0.216*[#  18]+0.182*[#  33]+0.133*[#  23]+0.089*[#  30]+
          +0.079*[#  20]+0.004*[#  15]+0.003*[#  12]+
    |psi|^2 = 0.999
==== e(  21) =    11.75653 eV ==== 
     psi = 0.329*[#  26]+0.162*[#  17]+0.107*[#  28]+0.094*[#  24]+0.077*[#  19]+
          +0.042*[#  29]+0.040*[#  34]+0.038*[#  22]+0.030*[#   4]+0.026*[#  32]+
          +0.023*[#  16]+0.014*[#  11]+0.007*[#  14]+0.004*[#   2]+
    |psi|^2 = 0.993
==== e(  22) =    12.03348 eV ==== 
     psi = 0.400*[#  22]+0.271*[#  19]+0.228*[#  24]+0.078*[#  17]+
    |psi|^2 = 0.977
==== e(  23) =    13.95142 eV ==== 
     psi = 0.446*[#  23]+0.280*[#  18]+0.160*[#  20]+0.067*[#  21]+0.041*[#  25]+
    |psi|^2 = 0.997
==== e(  24) =    14.16894 eV ==== 
     psi = 0.456*[#  21]+0.345*[#  20]+0.094*[#  25]+0.044*[#  31]+0.022*[#  30]+
          +0.016*[#  23]+0.012*[#  33]+0.009*[#  18]+
    |psi|^2 = 0.999
==== e(  25) =    14.16930 eV ==== 
     psi = 0.385*[#  22]+0.256*[#  19]+0.192*[#  24]+0.085*[#  17]+0.053*[#  32]+
          +0.027*[#  29]+
    |psi|^2 = 0.999
==== e(  26) =    14.76019 eV ==== 
     psi = 0.350*[#  21]+0.182*[#  20]+0.116*[#  23]+0.110*[#  27]+0.072*[#  18]+
          +0.049*[#  25]+0.045*[#   3]+0.021*[#  13]+0.014*[#  12]+0.011*[#  30]+
          +0.009*[#  31]+0.007*[#  15]+0.005*[#  33]+0.003*[#   1]+
    |psi|^2 = 0.996
==== e(  27) =    19.09611 eV ==== 
     psi = 0.338*[#   4]+0.148*[#  34]+0.129*[#  28]+0.099*[#  16]+0.098*[#  29]+
          +0.064*[#  11]+0.049*[#  32]+0.033*[#  14]+0.011*[#  26]+0.008*[#  17]+
          +0.004*[#  24]+0.003*[#   2]+0.003*[#  19]+0.002*[#  22]+0.001*[#  10]+
    |psi|^2 = 0.990
==== e(  28) =    20.16517 eV ==== 
     psi = 0.291*[#   3]+0.154*[#  31]+0.112*[#  27]+0.102*[#  30]+0.102*[#  13]+
          +0.065*[#  12]+0.051*[#  33]+0.034*[#  15]+0.028*[#  21]+0.022*[#  20]+
          +0.011*[#  23]+0.007*[#  18]+0.006*[#  25]+0.003*[#   1]+
    |psi|^2 = 0.990
==== e(  29) =    25.21191 eV ==== 
     psi = 0.002*[#  25]+0.001*[#  18]+
    |psi|^2 = 0.004
==== e(  30) =    26.28790 eV ==== 
     psi = 0.475*[#   4]+0.176*[#  16]+0.125*[#  11]+0.059*[#  14]+0.046*[#   2]+
          +0.014*[#  34]+0.011*[#  28]+0.008*[#  29]+0.005*[#  32]+
    |psi|^2 = 0.919

 k =   0.1544316358  0.0000000000  0.0000000000
==== e(   1) =   -75.59931 eV ==== 
     psi = 0.941*[#   2]+0.025*[#  16]+0.016*[#  11]+0.008*[#   4]+0.008*[#  14]+
    |psi|^2 = 1.000
==== e(   2) =   -71.86205 eV ==== 
     psi = 0.942*[#   1]+0.025*[#  13]+0.016*[#  12]+0.008*[#  15]+0.007*[#   3]+
    |psi|^2 = 1.000
==== e(   3) =   -42.04941 eV ==== 
     psi = 0.801*[#   5]+0.185*[#   8]+0.005*[#  16]+0.004*[#  34]+0.001*[#  10]+
          +0.001*[#   4]+
    |psi|^2 = 0.998
==== e(   4) =   -41.52534 eV ==== 
     psi = 0.546*[#   6]+0.445*[#   9]+0.003*[#  33]+0.002*[#  15]+0.002*[#  30]+
    |psi|^2 = 0.998
==== e(   5) =   -40.88742 eV ==== 
     psi = 0.986*[#  10]+0.003*[#  11]+0.003*[#  29]+0.002*[#  14]+0.001*[#   5]+
          +0.001*[#  32]+0.001*[#   4]+
    |psi|^2 = 0.998
==== e(   6) =   -38.13922 eV ==== 
     psi = 0.543*[#   9]+0.441*[#   6]+0.005*[#  13]+0.004*[#  31]+0.002*[#   7]+
          +0.001*[#   3]+
    |psi|^2 = 0.998
==== e(   7) =   -37.62687 eV ==== 
     psi = 0.805*[#   8]+0.186*[#   5]+0.003*[#  32]+0.002*[#  29]+0.001*[#  14]+
    |psi|^2 = 0.998
==== e(   8) =   -37.28301 eV ==== 
     psi = 0.985*[#   7]+0.003*[#  12]+0.003*[#  30]+0.002*[#  15]+0.001*[#   6]+
          +0.001*[#   9]+0.001*[#  33]+
    |psi|^2 = 0.998
==== e(   9) =    -5.55020 eV ==== 
     psi = 0.759*[#  28]+0.071*[#  16]+0.052*[#   4]+0.047*[#  11]+0.024*[#  14]+
          +0.015*[#  26]+0.012*[#  17]+0.006*[#  24]+0.004*[#   2]+0.004*[#  19]+
          +0.003*[#  22]+0.002*[#  10]+
    |psi|^2 = 0.999
==== e(  10) =    -4.91702 eV ==== 
     psi = 0.761*[#  27]+0.072*[#  13]+0.053*[#   3]+0.047*[#  12]+0.024*[#  15]+
          +0.013*[#  21]+0.010*[#  20]+0.005*[#  23]+0.004*[#   1]+0.003*[#  18]+
          +0.003*[#  25]+0.002*[#   7]+0.001*[#   6]+
    |psi|^2 = 0.999
==== e(  11) =     6.60029 eV ==== 
     psi = 0.293*[#  34]+0.195*[#  29]+0.098*[#  32]+0.074*[#  26]+0.074*[#  16]+
          +0.063*[#  17]+0.050*[#  11]+0.032*[#   4]+0.030*[#  24]+0.025*[#  14]+
          +0.021*[#  19]+0.015*[#  22]+0.015*[#  28]+0.007*[#   2]+0.004*[#  10]+
          +0.002*[#   5]+0.001*[#   8]+
    |psi|^2 = 0.999
==== e(  12) =     7.48241 eV ==== 
     psi = 0.323*[#  31]+0.216*[#  30]+0.108*[#  33]+0.082*[#  13]+0.055*[#  12]+
          +0.041*[#  21]+0.034*[#  20]+0.031*[#   3]+0.027*[#  15]+0.027*[#  27]+
          +0.016*[#  23]+0.011*[#  18]+0.009*[#   1]+0.008*[#  25]+0.005*[#   7]+
          +0.003*[#   6]+0.001*[#   9]+
    |psi|^2 = 0.997
==== e(  13) =     9.17254 eV ==== 
     psi = 0.463*[#  33]+0.248*[#  30]+0.098*[#  18]+0.063*[#  23]+0.056*[#  25]+
          +0.035*[#  15]+0.019*[#  12]+0.015*[#  20]+0.002*[#   9]+
    |psi|^2 = 0.999
==== e(  14) =     9.17349 eV ==== 
     psi = 0.354*[#  34]+0.252*[#  29]+0.111*[#  32]+0.107*[#  26]+0.096*[#  17]+
          +0.027*[#  16]+0.021*[#  22]+0.019*[#  11]+0.008*[#  14]+0.001*[#  10]+
    |psi|^2 = 0.999
==== e(  15) =     9.30824 eV ==== 
     psi = 0.416*[#  25]+0.282*[#  18]+0.179*[#  23]+0.111*[#  20]+0.005*[#  33]+
          +0.003*[#  30]+
    |psi|^2 = 0.996
==== e(  16) =    10.02377 eV ==== 
     psi = 0.590*[#  32]+0.283*[#  29]+0.042*[#  14]+0.024*[#  22]+0.021*[#  19]+
          +0.020*[#  11]+0.009*[#  24]+0.005*[#  17]+0.002*[#   8]+
    |psi|^2 = 0.997
==== e(  17) =    10.02441 eV ==== 
     psi = 0.436*[#  31]+0.282*[#  30]+0.156*[#  33]+0.031*[#  13]+0.029*[#  21]+
          +0.022*[#  20]+0.020*[#  12]+0.011*[#  15]+0.008*[#  25]+0.002*[#   7]+
    |psi|^2 = 0.997
==== e(  18) =    10.52358 eV ==== 
     psi = 0.416*[#  24]+0.331*[#  19]+0.122*[#  17]+0.110*[#  26]+0.020*[#  22]+
    |psi|^2 = 0.999
==== e(  19) =    11.26800 eV ==== 
     psi = 0.368*[#  17]+0.326*[#  26]+0.127*[#  34]+0.071*[#  22]+0.061*[#  29]+
          +0.029*[#  32]+0.006*[#  24]+0.004*[#  11]+0.002*[#  14]+0.002*[#  19]+
          +0.002*[#  16]+0.001*[#  28]+
    |psi|^2 = 0.999
==== e(  20) =    11.27297 eV ==== 
     psi = 0.314*[#  25]+0.232*[#  18]+0.146*[#  33]+0.143*[#  23]+0.085*[#  20]+
          +0.072*[#  30]+0.004*[#  15]+0.002*[#  12]+
    |psi|^2 = 0.999
==== e(  21) =    11.67768 eV ==== 
     psi = 0.358*[#  26]+0.160*[#  17]+0.103*[#  28]+0.097*[#  24]+0.081*[#  19]+
          +0.038*[#  22]+0.038*[#  29]+0.033*[#  34]+0.023*[#  32]+0.022*[#  16]+
          +0.016*[#   4]+0.013*[#  11]+0.006*[#  14]+0.003*[#   2]+
    |psi|^2 = 0.993
==== e(  22) =    11.91766 eV ==== 
     psi = 0.401*[#  22]+0.267*[#  19]+0.231*[#  24]+0.077*[#  17]+
    |psi|^2 = 0.976
==== e(  23) =    14.00019 eV ==== 
     psi = 0.446*[#  23]+0.281*[#  18]+0.161*[#  20]+0.067*[#  21]+0.041*[#  25]+
    |psi|^2 = 0.997
==== e(  24) =    14.22258 eV ==== 
     psi = 0.457*[#  21]+0.357*[#  20]+0.097*[#  25]+0.034*[#  31]+0.017*[#  30]+
          +0.017*[#  23]+0.009*[#  18]+0.009*[#  33]+
    |psi|^2 = 0.999
==== e(  25) =    14.22346 eV ==== 
     psi = 0.392*[#  22]+0.262*[#  19]+0.196*[#  24]+0.087*[#  17]+0.041*[#  32]+
          +0.021*[#  29]+
    |psi|^2 = 1.000
==== e(  26) =    14.78022 eV ==== 
     psi = 0.369*[#  21]+0.185*[#  20]+0.120*[#  23]+0.104*[#  27]+0.075*[#  18]+
          +0.050*[#  25]+0.029*[#   3]+0.019*[#  13]+0.012*[#  12]+0.010*[#  30]+
          +0.009*[#  31]+0.006*[#  15]+0.005*[#  33]+0.002*[#   1]+
    |psi|^2 = 0.997
==== e(  27) =    19.39058 eV ==== 
     psi = 0.443*[#   4]+0.127*[#  34]+0.103*[#  28]+0.085*[#  16]+0.084*[#  29]+
          +0.055*[#  11]+0.042*[#  32]+0.028*[#  14]+0.008*[#  26]+0.006*[#  17]+
          +0.003*[#  24]+0.002*[#  19]+0.002*[#  22]+
    |psi|^2 = 0.989
==== e(  28) =    20.46887 eV ==== 
     psi = 0.393*[#   3]+0.134*[#  31]+0.090*[#  13]+0.090*[#  27]+0.089*[#  30]+
          +0.058*[#  12]+0.045*[#  33]+0.030*[#  15]+0.022*[#  21]+0.017*[#  20]+
          +0.009*[#  23]+0.006*[#  18]+0.004*[#  25]+
    |psi|^2 = 0.988
==== e(  29) =    24.98530 eV ==== 
     psi = 0.002*[#  25]+0.001*[#  18]+
    |psi|^2 = 0.004
==== e(  30) =    25.30358 eV ==== 
     psi = 0.416*[#   4]+0.202*[#  16]+0.141*[#  11]+0.067*[#  14]+0.041*[#   2]+
          +0.031*[#  34]+0.019*[#  29]+0.012*[#  28]+0.010*[#  32]+
    |psi|^2 = 0.941

 k =   0.1698747994  0.0000000000  0.0000000000
==== e(   1) =   -75.59516 eV ==== 
     psi = 0.955*[#   2]+0.018*[#  16]+0.012*[#  11]+0.009*[#   4]+0.006*[#  14]+
    |psi|^2 = 1.000
==== e(   2) =   -71.85794 eV ==== 
     psi = 0.955*[#   1]+0.018*[#  13]+0.012*[#  12]+0.008*[#   3]+0.006*[#  15]+
    |psi|^2 = 1.000
==== e(   3) =   -42.03531 eV ==== 
     psi = 0.802*[#   5]+0.185*[#   8]+0.005*[#  34]+0.004*[#  16]+
    |psi|^2 = 0.998
==== e(   4) =   -41.51873 eV ==== 
     psi = 0.546*[#   6]+0.446*[#   9]+0.003*[#  33]+0.001*[#  15]+0.002*[#  30]+
    |psi|^2 = 0.998
==== e(   5) =   -40.87447 eV ==== 
     psi = 0.987*[#  10]+0.003*[#  29]+0.003*[#  11]+0.002*[#  32]+0.001*[#  14]+
    |psi|^2 = 0.998
==== e(   6) =   -38.12737 eV ==== 
     psi = 0.543*[#   9]+0.442*[#   6]+0.005*[#  31]+0.004*[#  13]+0.002*[#   7]+
    |psi|^2 = 0.998
==== e(   7) =   -37.62166 eV ==== 
     psi = 0.805*[#   8]+0.186*[#   5]+0.003*[#  32]+0.002*[#  29]+
    |psi|^2 = 0.998
==== e(   8) =   -37.27239 eV ==== 
     psi = 0.985*[#   7]+0.003*[#  30]+0.003*[#  12]+0.002*[#  33]+0.001*[#  15]+
          +0.001*[#   6]+0.001*[#   9]+
    |psi|^2 = 0.998
==== e(   9) =    -5.47207 eV ==== 
     psi = 0.795*[#  28]+0.052*[#  16]+0.045*[#   4]+0.034*[#  11]+0.020*[#  26]+
          +0.017*[#  14]+0.015*[#  17]+0.008*[#  24]+0.005*[#  19]+0.004*[#  22]+
          +0.002*[#   2]+0.001*[#  10]+
    |psi|^2 = 0.999
==== e(  10) =    -4.83389 eV ==== 
     psi = 0.799*[#  27]+0.052*[#  13]+0.046*[#   3]+0.035*[#  12]+0.017*[#  15]+
          +0.017*[#  21]+0.014*[#  20]+0.007*[#  23]+0.005*[#  18]+0.003*[#  25]+
          +0.002*[#   1]+0.001*[#   7]+
    |psi|^2 = 0.999
==== e(  11) =     6.70274 eV ==== 
     psi = 0.306*[#  34]+0.204*[#  29]+0.102*[#  32]+0.088*[#  16]+0.060*[#  11]+
          +0.059*[#  26]+0.050*[#  17]+0.029*[#  14]+0.025*[#   4]+0.024*[#  24]+
          +0.016*[#  19]+0.012*[#  22]+0.009*[#  28]+0.006*[#   2]+0.005*[#  10]+
          +0.003*[#   5]+0.002*[#   8]+
    |psi|^2 = 0.999
==== e(  12) =     7.51457 eV ==== 
     psi = 0.331*[#  31]+0.221*[#  30]+0.110*[#  33]+0.096*[#  13]+0.065*[#  12]+
          +0.032*[#  15]+0.031*[#  21]+0.026*[#  20]+0.023*[#   3]+0.018*[#  27]+
          +0.012*[#  23]+0.009*[#  18]+0.007*[#   1]+0.006*[#  25]+0.006*[#   7]+
          +0.004*[#   6]+0.002*[#   9]+
    |psi|^2 = 0.997
==== e(  13) =     9.20739 eV ==== 
     psi = 0.426*[#  33]+0.228*[#  30]+0.178*[#  18]+0.114*[#  23]+0.033*[#  15]+
          +0.018*[#  12]+0.002*[#   9]+
    |psi|^2 = 0.998
==== e(  14) =     9.21173 eV ==== 
     psi = 0.379*[#  34]+0.270*[#  29]+0.118*[#  32]+0.080*[#  26]+0.073*[#  17]+
          +0.030*[#  16]+0.021*[#  11]+0.016*[#  22]+0.009*[#  14]+0.001*[#  10]+
    |psi|^2 = 0.998
==== e(  15) =     9.23884 eV ==== 
     psi = 0.450*[#  25]+0.185*[#  18]+0.120*[#  20]+0.118*[#  23]+0.073*[#  33]+
          +0.041*[#  30]+0.006*[#  15]+0.003*[#  12]+
    |psi|^2 = 0.996
==== e(  16) =     9.99798 eV ==== 
     psi = 0.600*[#  32]+0.286*[#  29]+0.045*[#  14]+0.021*[#  11]+0.017*[#  22]+
          +0.015*[#  19]+0.007*[#  24]+0.003*[#  17]+0.002*[#   8]+0.001*[#   5]+
    |psi|^2 = 0.997
==== e(  17) =     9.99852 eV ==== 
     psi = 0.442*[#  31]+0.285*[#  30]+0.160*[#  33]+0.033*[#  13]+0.022*[#  12]+
          +0.020*[#  21]+0.015*[#  20]+0.012*[#  15]+0.006*[#  25]+0.002*[#   7]+
          +0.001*[#   6]+
    |psi|^2 = 0.997
==== e(  18) =    10.55529 eV ==== 
     psi = 0.411*[#  24]+0.335*[#  19]+0.127*[#  17]+0.105*[#  26]+0.020*[#  22]+
    |psi|^2 = 0.999
==== e(  19) =    11.21055 eV ==== 
     psi = 0.404*[#  17]+0.335*[#  26]+0.098*[#  34]+0.078*[#  22]+0.043*[#  29]+
          +0.021*[#  32]+0.008*[#  24]+0.004*[#  11]+0.003*[#  19]+0.002*[#  28]+
          +0.002*[#  14]+0.001*[#  16]+
    |psi|^2 = 0.999
==== e(  20) =    11.21692 eV ==== 
     psi = 0.336*[#  25]+0.249*[#  18]+0.153*[#  23]+0.109*[#  33]+0.091*[#  20]+
          +0.054*[#  30]+0.004*[#  15]+0.002*[#  12]+
    |psi|^2 = 0.999
==== e(  21) =    11.57321 eV ==== 
     psi = 0.393*[#  26]+0.156*[#  17]+0.100*[#  24]+0.097*[#  28]+0.084*[#  19]+
          +0.038*[#  22]+0.033*[#  29]+0.026*[#  34]+0.020*[#  32]+0.019*[#  16]+
          +0.011*[#  11]+0.007*[#   4]+0.005*[#  14]+0.002*[#   2]+
    |psi|^2 = 0.993
==== e(  22) =    11.81657 eV ==== 
     psi = 0.403*[#  22]+0.263*[#  19]+0.233*[#  24]+0.075*[#  17]+
    |psi|^2 = 0.975
==== e(  23) =    14.04320 eV ==== 
     psi = 0.443*[#  23]+0.279*[#  18]+0.169*[#  20]+0.062*[#  21]+0.043*[#  25]+
    |psi|^2 = 0.997
==== e(  24) =    14.25075 eV ==== 
     psi = 0.461*[#  21]+0.365*[#  20]+0.099*[#  25]+0.024*[#  31]+0.020*[#  23]+
          +0.012*[#  18]+0.011*[#  30]+0.006*[#  33]+
    |psi|^2 = 1.000
==== e(  25) =    14.25184 eV ==== 
     psi = 0.399*[#  22]+0.268*[#  19]+0.200*[#  24]+0.089*[#  17]+0.029*[#  32]+
          +0.014*[#  29]+
    |psi|^2 = 1.000
==== e(  26) =    14.76896 eV ==== 
     psi = 0.391*[#  21]+0.187*[#  20]+0.124*[#  23]+0.097*[#  27]+0.077*[#  18]+
          +0.050*[#  25]+0.016*[#   3]+0.015*[#  13]+0.010*[#  12]+0.009*[#  30]+
          +0.008*[#  31]+0.005*[#  15]+0.004*[#  33]+0.001*[#   1]+
    |psi|^2 = 0.997
==== e(  27) =    19.64042 eV ==== 
     psi = 0.561*[#   4]+0.099*[#  34]+0.080*[#  28]+0.068*[#  16]+0.066*[#  29]+
          +0.044*[#  11]+0.033*[#  32]+0.023*[#  14]+0.005*[#  26]+0.004*[#  17]+
          +0.002*[#  24]+0.001*[#  19]+0.001*[#  22]+
    |psi|^2 = 0.988
==== e(  28) =    20.72342 eV ==== 
     psi = 0.514*[#   3]+0.106*[#  31]+0.076*[#  13]+0.071*[#  30]+0.070*[#  27]+
          +0.049*[#  12]+0.035*[#  33]+0.025*[#  15]+0.015*[#  21]+0.011*[#  20]+
          +0.006*[#  23]+0.004*[#  18]+0.003*[#  25]+
    |psi|^2 = 0.985
==== e(  29) =    24.63121 eV ==== 
     psi = 0.327*[#   4]+0.233*[#  16]+0.160*[#  11]+0.078*[#  14]+0.052*[#  34]+
          +0.033*[#  29]+0.033*[#   2]+0.017*[#  32]+0.011*[#  28]+0.001*[#  26]+
    |psi|^2 = 0.948
==== e(  30) =    24.80485 eV ==== 
     psi = 0.002*[#  25]+0.001*[#  18]+
    |psi|^2 = 0.004

 k =   0.1853179629  0.0000000000  0.0000000000
==== e(   1) =   -75.60144 eV ==== 
     psi = 0.968*[#   2]+0.011*[#  16]+0.009*[#   4]+0.007*[#  11]+0.004*[#  14]+
    |psi|^2 = 1.000
==== e(   2) =   -71.86380 eV ==== 
     psi = 0.968*[#   1]+0.012*[#  13]+0.008*[#   3]+0.007*[#  12]+0.004*[#  15]+
    |psi|^2 = 1.000
==== e(   3) =   -42.06205 eV ==== 
     psi = 0.802*[#   5]+0.185*[#   8]+0.005*[#  34]+0.003*[#  16]+
    |psi|^2 = 0.998
==== e(   4) =   -41.54842 eV ==== 
     psi = 0.546*[#   6]+0.446*[#   9]+0.003*[#  33]+0.002*[#  30]+0.001*[#  15]+
    |psi|^2 = 0.998
==== e(   5) =   -40.90170 eV ==== 
     psi = 0.987*[#  10]+0.004*[#  29]+0.002*[#  11]+0.002*[#  32]+0.001*[#  14]+
    |psi|^2 = 0.998
==== e(   6) =   -38.15233 eV ==== 
     psi = 0.543*[#   9]+0.442*[#   6]+0.006*[#  31]+0.004*[#  13]+0.001*[#   7]+
    |psi|^2 = 0.998
==== e(   7) =   -37.64928 eV ==== 
     psi = 0.805*[#   8]+0.186*[#   5]+0.004*[#  32]+0.002*[#  29]+
    |psi|^2 = 0.998
==== e(   8) =   -37.29768 eV ==== 
     psi = 0.985*[#   7]+0.004*[#  30]+0.002*[#  12]+0.002*[#  33]+0.001*[#  15]+
    |psi|^2 = 0.998
==== e(   9) =    -5.41731 eV ==== 
     psi = 0.828*[#  28]+0.040*[#   4]+0.033*[#  16]+0.024*[#  26]+0.022*[#  11]+
          +0.019*[#  17]+0.011*[#  14]+0.010*[#  24]+0.006*[#  19]+0.005*[#  22]+
          +0.001*[#   2]+
    |psi|^2 = 0.999
==== e(  10) =    -4.77462 eV ==== 
     psi = 0.833*[#  27]+0.041*[#   3]+0.033*[#  13]+0.022*[#  12]+0.022*[#  21]+
          +0.017*[#  20]+0.011*[#  15]+0.009*[#  23]+0.006*[#  18]+0.004*[#  25]+
          +0.001*[#   1]+
    |psi|^2 = 0.999
==== e(  11) =     6.81377 eV ==== 
     psi = 0.324*[#  34]+0.216*[#  29]+0.108*[#  32]+0.102*[#  16]+0.070*[#  11]+
          +0.040*[#  26]+0.034*[#  14]+0.034*[#  17]+0.017*[#   4]+0.016*[#  24]+
          +0.011*[#  19]+0.008*[#  22]+0.006*[#  10]+0.005*[#  28]+0.004*[#   2]+
          +0.004*[#   5]+0.002*[#   8]+
    |psi|^2 = 0.999
==== e(  12) =     7.54897 eV ==== 
     psi = 0.341*[#  31]+0.227*[#  30]+0.114*[#  33]+0.108*[#  13]+0.074*[#  12]+
          +0.036*[#  15]+0.020*[#  21]+0.017*[#  20]+0.015*[#   3]+0.011*[#  27]+
          +0.008*[#  23]+0.007*[#   7]+0.006*[#  18]+0.005*[#   1]+0.004*[#   6]+
          +0.004*[#  25]+0.002*[#   9]+
    |psi|^2 = 0.998
==== e(  13) =     9.17241 eV ==== 
     psi = 0.342*[#  18]+0.306*[#  25]+0.218*[#  23]+0.080*[#  20]+0.029*[#  33]+
          +0.015*[#  30]+0.002*[#  15]+0.001*[#  12]+
    |psi|^2 = 0.995
==== e(  14) =     9.20774 eV ==== 
     psi = 0.408*[#  34]+0.290*[#  29]+0.125*[#  32]+0.050*[#  26]+0.046*[#  17]+
          +0.033*[#  16]+0.023*[#  11]+0.010*[#  22]+0.010*[#  14]+0.002*[#  10]+
          +0.001*[#   5]+
    |psi|^2 = 0.999
==== e(  15) =     9.20994 eV ==== 
     psi = 0.505*[#  33]+0.274*[#  30]+0.118*[#  25]+0.041*[#  15]+0.032*[#  20]+
          +0.022*[#  12]+0.002*[#   9]+0.002*[#  18]+0.001*[#   6]+0.001*[#  23]+
    |psi|^2 = 0.998
==== e(  16) =     9.92731 eV ==== 
     psi = 0.610*[#  32]+0.287*[#  29]+0.049*[#  14]+0.023*[#  11]+0.010*[#  22]+
          +0.009*[#  19]+0.004*[#  24]+0.003*[#   8]+0.002*[#  17]+0.001*[#   5]+
    |psi|^2 = 0.998
==== e(  17) =     9.92777 eV ==== 
     psi = 0.447*[#  31]+0.287*[#  30]+0.164*[#  33]+0.036*[#  13]+0.023*[#  12]+
          +0.013*[#  15]+0.012*[#  21]+0.009*[#  20]+0.003*[#  25]+0.002*[#   7]+
          +0.001*[#   6]+
    |psi|^2 = 0.998
==== e(  18) =    10.58118 eV ==== 
     psi = 0.406*[#  24]+0.338*[#  19]+0.134*[#  17]+0.099*[#  26]+0.021*[#  22]+
    |psi|^2 = 0.999
==== e(  19) =    11.13237 eV ==== 
     psi = 0.452*[#  17]+0.332*[#  26]+0.088*[#  22]+0.064*[#  34]+0.024*[#  29]+
          +0.013*[#  24]+0.011*[#  32]+0.005*[#  19]+0.003*[#  11]+0.003*[#  28]+
          +0.002*[#  14]+
    |psi|^2 = 0.999
==== e(  20) =    11.14115 eV ==== 
     psi = 0.362*[#  25]+0.269*[#  18]+0.165*[#  23]+0.098*[#  20]+0.068*[#  33]+
          +0.033*[#  30]+0.003*[#  15]+0.002*[#  12]+
    |psi|^2 = 0.999
==== e(  21) =    11.43172 eV ==== 
     psi = 0.449*[#  26]+0.143*[#  17]+0.103*[#  24]+0.090*[#  28]+0.087*[#  19]+
          +0.035*[#  22]+0.025*[#  29]+0.016*[#  34]+0.015*[#  32]+0.014*[#  16]+
          +0.007*[#  11]+0.003*[#  14]+0.002*[#   4]+0.001*[#   2]+
    |psi|^2 = 0.994
==== e(  22) =    11.73383 eV ==== 
     psi = 0.405*[#  22]+0.261*[#  19]+0.235*[#  24]+0.073*[#  17]+
    |psi|^2 = 0.974
==== e(  23) =    14.07838 eV ==== 
     psi = 0.437*[#  23]+0.276*[#  18]+0.184*[#  20]+0.053*[#  21]+0.047*[#  25]+
    |psi|^2 = 0.997
==== e(  24) =    14.25842 eV ==== 
     psi = 0.463*[#  21]+0.367*[#  20]+0.100*[#  25]+0.027*[#  23]+0.016*[#  18]+
          +0.015*[#  31]+0.006*[#  30]+0.004*[#  33]+0.001*[#  27]+
    |psi|^2 = 1.000
==== e(  25) =    14.25955 eV ==== 
     psi = 0.406*[#  22]+0.273*[#  19]+0.204*[#  24]+0.090*[#  17]+0.017*[#  32]+
          +0.009*[#  29]+
    |psi|^2 = 1.000
==== e(  26) =    14.72110 eV ==== 
     psi = 0.419*[#  21]+0.187*[#  20]+0.128*[#  23]+0.090*[#  27]+0.080*[#  18]+
          +0.050*[#  25]+0.010*[#  13]+0.007*[#   3]+0.007*[#  30]+0.006*[#  12]+
          +0.006*[#  31]+0.003*[#  15]+0.003*[#  33]+
    |psi|^2 = 0.998
==== e(  27) =    19.77406 eV ==== 
     psi = 0.700*[#   4]+0.065*[#  34]+0.060*[#  28]+0.045*[#  16]+0.043*[#  29]+
          +0.029*[#  11]+0.021*[#  32]+0.015*[#  14]+0.002*[#  26]+0.002*[#   2]+
          +0.002*[#  17]+0.001*[#  24]+
    |psi|^2 = 0.987
==== e(  28) =    20.87249 eV ==== 
     psi = 0.661*[#   3]+0.071*[#  31]+0.053*[#  27]+0.053*[#  13]+0.047*[#  30]+
          +0.034*[#  12]+0.024*[#  33]+0.018*[#  15]+0.009*[#  21]+0.007*[#  20]+
          +0.003*[#  23]+0.002*[#  18]+0.002*[#  25]+0.001*[#   1]+
    |psi|^2 = 0.984
==== e(  29) =    24.04990 eV ==== 
     psi = 0.274*[#  16]+0.213*[#   4]+0.187*[#  11]+0.091*[#  14]+0.078*[#  34]+
          +0.050*[#  29]+0.026*[#  32]+0.023*[#   2]+0.009*[#  28]+0.001*[#  26]+
    |psi|^2 = 0.955
==== e(  30) =    24.66507 eV ==== 
     psi = 0.002*[#  25]+0.001*[#  18]+
    |psi|^2 = 0.005

 k =   0.2007611265  0.0000000000  0.0000000000
==== e(   1) =   -75.59775 eV ==== 
     psi = 0.979*[#   2]+0.009*[#   4]+0.006*[#  16]+0.004*[#  11]+0.002*[#  14]+
    |psi|^2 = 1.000
==== e(   2) =   -71.86038 eV ==== 
     psi = 0.980*[#   1]+0.008*[#   3]+0.006*[#  13]+0.004*[#  12]+0.002*[#  15]+
    |psi|^2 = 1.000
==== e(   3) =   -42.04475 eV ==== 
     psi = 0.803*[#   5]+0.185*[#   8]+0.006*[#  34]+0.003*[#  16]+
    |psi|^2 = 0.998
==== e(   4) =   -41.54686 eV ==== 
     psi = 0.545*[#   6]+0.447*[#   9]+0.003*[#  33]+0.002*[#  30]+
    |psi|^2 = 0.998
==== e(   5) =   -40.88563 eV ==== 
     psi = 0.988*[#  10]+0.004*[#  29]+0.002*[#  32]+0.002*[#  11]+
    |psi|^2 = 0.998
==== e(   6) =   -38.13733 eV ==== 
     psi = 0.543*[#   9]+0.444*[#   6]+0.007*[#  31]+0.003*[#  13]+
    |psi|^2 = 0.998
==== e(   7) =   -37.64850 eV ==== 
     psi = 0.806*[#   8]+0.186*[#   5]+0.004*[#  32]+0.002*[#  29]+
    |psi|^2 = 0.998
==== e(   8) =   -37.28408 eV ==== 
     psi = 0.986*[#   7]+0.005*[#  30]+0.002*[#  33]+0.002*[#  12]+
    |psi|^2 = 0.998
==== e(   9) =    -5.37928 eV ==== 
     psi = 0.855*[#  28]+0.037*[#   4]+0.028*[#  26]+0.022*[#  17]+0.016*[#  16]+
          +0.011*[#  24]+0.010*[#  11]+0.007*[#  19]+0.006*[#  22]+0.005*[#  14]+
    |psi|^2 = 0.999
==== e(  10) =    -4.73297 eV ==== 
     psi = 0.861*[#  27]+0.037*[#   3]+0.025*[#  21]+0.020*[#  20]+0.016*[#  13]+
          +0.011*[#  12]+0.010*[#  23]+0.007*[#  18]+0.005*[#  15]+0.005*[#  25]+
    |psi|^2 = 0.999
==== e(  11) =     6.94524 eV ==== 
     psi = 0.342*[#  34]+0.228*[#  29]+0.115*[#  16]+0.114*[#  32]+0.079*[#  11]+
          +0.038*[#  14]+0.021*[#  26]+0.018*[#  17]+0.009*[#   4]+0.008*[#  24]+
          +0.006*[#  10]+0.006*[#  19]+0.004*[#  22]+0.004*[#   5]+0.002*[#   8]+
          +0.002*[#   2]+0.002*[#  28]+
    |psi|^2 = 0.999
==== e(  12) =     7.60786 eV ==== 
     psi = 0.350*[#  31]+0.233*[#  30]+0.119*[#  13]+0.117*[#  33]+0.082*[#  12]+
          +0.040*[#  15]+0.010*[#  21]+0.008*[#  20]+0.008*[#   3]+0.007*[#   7]+
          +0.005*[#  27]+0.005*[#   6]+0.004*[#  23]+0.003*[#  18]+0.002*[#   1]+
          +0.002*[#   9]+0.002*[#  25]+
    |psi|^2 = 0.999
==== e(  13) =     9.12980 eV ==== 
     psi = 0.373*[#  25]+0.319*[#  18]+0.203*[#  23]+0.098*[#  20]+0.001*[#  33]+
    |psi|^2 = 0.995
==== e(  14) =     9.25193 eV ==== 
     psi = 0.432*[#  34]+0.307*[#  29]+0.131*[#  32]+0.035*[#  16]+0.025*[#  11]+
          +0.025*[#  26]+0.023*[#  17]+0.010*[#  14]+0.005*[#  22]+0.002*[#  10]+
          +0.001*[#   5]+
    |psi|^2 = 0.998
==== e(  15) =     9.25224 eV ==== 
     psi = 0.563*[#  33]+0.306*[#  30]+0.046*[#  15]+0.031*[#  25]+0.025*[#  12]+
          +0.010*[#  18]+0.008*[#  20]+0.006*[#  23]+0.002*[#   9]+0.001*[#   6]+
    |psi|^2 = 0.998
==== e(  16) =     9.92000 eV ==== 
     psi = 0.619*[#  32]+0.289*[#  29]+0.050*[#  14]+0.024*[#  11]+0.005*[#  22]+
          +0.004*[#  19]+0.003*[#   8]+0.002*[#  24]+0.001*[#   5]+
    |psi|^2 = 0.998
==== e(  17) =     9.92041 eV ==== 
     psi = 0.452*[#  31]+0.288*[#  30]+0.167*[#  33]+0.037*[#  13]+0.024*[#  12]+
          +0.013*[#  15]+0.006*[#  21]+0.004*[#  20]+0.002*[#   7]+0.002*[#  25]+
          +0.001*[#   6]+
    |psi|^2 = 0.998
==== e(  18) =    10.60048 eV ==== 
[...]
          +0.002*[#  16]+0.002*[#  11]+0.002*[#  28]+
    |psi|^2 = 0.999
==== e(  20) =    11.79606 eV ==== 
     psi = 0.275*[#  26]+0.164*[#  17]+0.082*[#  24]+0.070*[#  34]+0.066*[#  19]+
          +0.050*[#  29]+0.040*[#  33]+0.039*[#  28]+0.035*[#  25]+0.034*[#  22]+
          +0.028*[#  18]+0.026*[#  32]+0.021*[#   4]+0.018*[#  30]+0.018*[#  23]+
          +0.010*[#  20]+0.008*[#  16]+0.005*[#  11]+0.002*[#  14]+
    |psi|^2 = 0.996
==== e(  21) =    12.75984 eV ==== 
     psi = 0.227*[#  19]+0.193*[#  24]+0.144*[#  33]+0.099*[#  34]+0.078*[#  26]+
          +0.064*[#  17]+0.062*[#  29]+0.059*[#  30]+0.043*[#  32]+0.007*[#  15]+
          +0.005*[#  16]+0.004*[#  22]+0.004*[#  12]+0.004*[#  11]+0.001*[#  14]+
          +0.001*[#  25]+
    |psi|^2 = 0.997
==== e(  22) =    13.24198 eV ==== 
     psi = 0.336*[#  22]+0.232*[#  24]+0.216*[#  19]+0.060*[#  17]+0.021*[#  30]+
          +0.020*[#  32]+0.019*[#  29]+0.018*[#  31]+0.017*[#  21]+0.016*[#  20]+
          +0.007*[#  23]+0.006*[#  27]+0.005*[#   3]+0.005*[#  25]+0.004*[#  18]+
          +0.003*[#  14]+0.002*[#  33]+0.002*[#  13]+0.001*[#  34]+0.001*[#  15]+
    |psi|^2 = 0.992
==== e(  23) =    14.01188 eV ==== 
     psi = 0.229*[#  20]+0.219*[#  21]+0.197*[#  22]+0.133*[#  19]+0.106*[#  24]+
          +0.063*[#  25]+0.044*[#  17]+0.003*[#  23]+0.002*[#  18]+
    |psi|^2 = 0.999
==== e(  24) =    14.18177 eV ==== 
     psi = 0.207*[#  22]+0.206*[#  21]+0.185*[#  20]+0.116*[#  19]+0.090*[#  24]+
          +0.050*[#  25]+0.047*[#  17]+0.046*[#  31]+0.024*[#  30]+0.011*[#  33]+
          +0.004*[#  32]+0.004*[#   3]+0.004*[#  23]+0.002*[#  18]+0.002*[#  29]+
          +0.001*[#  27]+
    |psi|^2 = 0.999
==== e(  25) =    14.92729 eV ==== 
     psi = 0.353*[#  21]+0.208*[#  20]+0.125*[#  23]+0.078*[#  18]+0.056*[#  25]+
          +0.046*[#  27]+0.025*[#  31]+0.019*[#  30]+0.016*[#  32]+0.014*[#   3]+
          +0.013*[#  22]+0.009*[#  33]+0.009*[#  19]+0.008*[#  29]+0.007*[#  24]+
          +0.004*[#  13]+0.003*[#  17]+0.003*[#  12]+0.001*[#  15]+
    |psi|^2 = 0.998
==== e(  26) =    15.64311 eV ==== 
     psi = 0.353*[#  23]+0.224*[#  18]+0.106*[#  21]+0.071*[#  20]+0.070*[#  32]+
          +0.052*[#  31]+0.037*[#  30]+0.036*[#  29]+0.018*[#  25]+0.018*[#  33]+
          +0.004*[#  14]+0.003*[#  13]+0.002*[#  11]+0.002*[#  12]+
    |psi|^2 = 0.999
==== e(  27) =    21.90935 eV ==== 
     psi = 0.560*[#   4]+0.092*[#  16]+0.062*[#  11]+0.047*[#  15]+0.038*[#  34]+
          +0.035*[#  28]+0.031*[#  14]+0.026*[#  29]+0.024*[#  12]+0.013*[#  32]+
          +0.013*[#  33]+0.008*[#   2]+0.006*[#  30]+
    |psi|^2 = 0.958
==== e(  28) =    22.43289 eV ==== 
     psi = 0.238*[#   4]+0.136*[#  16]+0.129*[#  15]+0.093*[#  11]+0.063*[#  12]+
          +0.045*[#  14]+0.042*[#  33]+0.038*[#  34]+0.036*[#  28]+0.024*[#  29]+
          +0.021*[#  30]+0.012*[#  32]+0.004*[#   2]+0.003*[#  25]+0.002*[#  18]+
          +0.002*[#  26]+0.001*[#  17]+0.001*[#  23]+
    |psi|^2 = 0.893
==== e(  29) =    22.85808 eV ==== 
     psi = 0.376*[#   3]+0.146*[#  13]+0.100*[#  12]+0.077*[#  14]+0.048*[#  27]+
          +0.047*[#  15]+0.040*[#  11]+0.038*[#  31]+0.026*[#  30]+0.014*[#  33]+
          +0.005*[#   1]+0.004*[#  22]+0.004*[#  32]+0.003*[#  19]+0.002*[#  24]+
          +0.002*[#  29]+0.002*[#  21]+0.001*[#  20]+
    |psi|^2 = 0.936
==== e(  30) =    23.41540 eV ==== 
     psi = 0.418*[#   3]+0.086*[#  13]+0.086*[#  14]+0.059*[#  12]+0.048*[#  32]+
          +0.044*[#  11]+0.038*[#  31]+0.029*[#  15]+0.024*[#  30]+0.024*[#  29]+
          +0.019*[#  27]+0.012*[#  33]+0.007*[#  22]+0.006*[#   1]+0.005*[#  19]+
          +0.003*[#  21]+0.003*[#  24]+0.002*[#  20]+0.002*[#  17]+0.001*[#  23]+
    |psi|^2 = 0.917

 k =   0.1673009388  0.0128693030  0.1673009388
==== e(   1) =   -75.59867 eV ==== 
     psi = 0.985*[#   2]+0.010*[#   4]+0.001*[#  33]+0.001*[#  34]+
    |psi|^2 = 1.000
==== e(   2) =   -71.86135 eV ==== 
     psi = 0.986*[#   1]+0.009*[#   3]+0.001*[#  32]+0.001*[#  31]+
    |psi|^2 = 1.000
==== e(   3) =   -42.04930 eV ==== 
     psi = 0.803*[#   5]+0.185*[#   8]+0.005*[#  34]+0.001*[#   6]+0.001*[#   9]+
    |psi|^2 = 0.998
==== e(   4) =   -41.55202 eV ==== 
     psi = 0.543*[#   6]+0.445*[#   9]+0.002*[#   5]+0.002*[#  33]+0.002*[#  10]+
          +0.001*[#  15]+
    |psi|^2 = 0.998
==== e(   5) =   -40.88770 eV ==== 
     psi = 0.988*[#  10]+0.004*[#  29]+0.002*[#  32]+
    |psi|^2 = 0.998
==== e(   6) =   -38.14102 eV ==== 
     psi = 0.543*[#   9]+0.444*[#   6]+0.006*[#  31]+0.002*[#   8]+
    |psi|^2 = 0.998
==== e(   7) =   -37.65576 eV ==== 
     psi = 0.800*[#   8]+0.184*[#   5]+0.005*[#   7]+0.002*[#  32]+0.001*[#   6]+
          +0.001*[#   9]+0.001*[#  29]+
    |psi|^2 = 0.998
==== e(   8) =   -37.28456 eV ==== 
     psi = 0.984*[#   7]+0.004*[#   8]+0.004*[#  30]+0.002*[#  33]+0.001*[#   5]+
    |psi|^2 = 0.998
==== e(   9) =    -5.22257 eV ==== 
     psi = 0.862*[#  28]+0.025*[#  15]+0.021*[#  26]+0.020*[#  16]+0.016*[#  17]+
          +0.014*[#  11]+0.013*[#  12]+0.008*[#  24]+0.007*[#  14]+0.005*[#  19]+
          +0.004*[#  22]+0.004*[#   4]+
    |psi|^2 = 0.999
==== e(  10) =    -4.58182 eV ==== 
     psi = 0.866*[#  27]+0.025*[#  14]+0.020*[#  13]+0.018*[#  21]+0.015*[#  20]+
          +0.014*[#  12]+0.013*[#  11]+0.007*[#  23]+0.007*[#  15]+0.005*[#  18]+
          +0.004*[#   3]+0.004*[#  25]+
    |psi|^2 = 0.999
==== e(  11) =     6.90627 eV ==== 
     psi = 0.177*[#  34]+0.167*[#  33]+0.119*[#  29]+0.084*[#  30]+0.076*[#   4]+
          +0.067*[#  25]+0.059*[#  32]+0.052*[#  18]+0.034*[#  23]+0.028*[#  16]+
          +0.025*[#  26]+0.021*[#  17]+0.019*[#  11]+0.017*[#  20]+0.017*[#  15]+
          +0.009*[#  14]+0.009*[#  12]+0.007*[#  24]+0.005*[#  22]+0.005*[#  19]+
          +0.001*[#   2]+
    |psi|^2 = 0.999
==== e(  12) =     7.30713 eV ==== 
     psi = 0.303*[#  34]+0.201*[#  29]+0.100*[#  32]+0.073*[#  16]+0.051*[#  11]+
          +0.043*[#  26]+0.037*[#  17]+0.034*[#  25]+0.029*[#  33]+0.027*[#  18]+
          +0.025*[#  14]+0.018*[#  23]+0.015*[#  30]+0.009*[#  20]+0.009*[#  22]+
          +0.007*[#  24]+0.005*[#  19]+0.004*[#   4]+0.004*[#  15]+0.003*[#  10]+
          +0.002*[#   5]+0.002*[#  12]+0.001*[#   8]+
    |psi|^2 = 0.999
==== e(  13) =     7.76721 eV ==== 
     psi = 0.238*[#  31]+0.159*[#  30]+0.148*[#  32]+0.080*[#  33]+0.074*[#  29]+
          +0.072*[#   3]+0.047*[#  13]+0.032*[#  12]+0.030*[#  22]+0.024*[#  19]+
          +0.015*[#  15]+0.015*[#  24]+0.013*[#  14]+0.013*[#  21]+0.011*[#  20]+
          +0.008*[#  17]+0.007*[#  11]+0.003*[#  25]+0.002*[#  23]+0.002*[#   7]+
          +0.001*[#   1]+0.001*[#  18]+0.001*[#   6]+
    |psi|^2 = 0.999
==== e(  14) =     7.96869 eV ==== 
     psi = 0.185*[#  33]+0.181*[#  24]+0.135*[#  34]+0.129*[#  19]+0.094*[#  29]+
          +0.091*[#  30]+0.051*[#  26]+0.047*[#  32]+0.044*[#  17]+0.010*[#  22]+
          +0.010*[#  15]+0.008*[#  16]+0.005*[#  12]+0.005*[#  11]+0.002*[#  14]+
    |psi|^2 = 0.999
==== e(  15) =     8.14305 eV ==== 
     psi = 0.297*[#  31]+0.201*[#  30]+0.096*[#  33]+0.083*[#  32]+0.065*[#  13]+
          +0.044*[#  12]+0.043*[#  29]+0.022*[#  22]+0.022*[#  15]+0.021*[#  21]+
          +0.021*[#   3]+0.018*[#  20]+0.017*[#  19]+0.012*[#  24]+0.008*[#  14]+
          +0.006*[#  17]+0.005*[#  23]+0.004*[#  11]+0.004*[#  25]+0.003*[#  18]+
          +0.003*[#   7]+0.002*[#   6]+0.001*[#   9]+
    |psi|^2 = 0.998
==== e(  16) =     9.24580 eV ==== 
     psi = 0.247*[#  32]+0.187*[#  31]+0.127*[#  29]+0.127*[#  30]+0.085*[#  23]+
          +0.067*[#  18]+0.061*[#  33]+0.025*[#  21]+0.022*[#  20]+0.014*[#  14]+
          +0.011*[#  13]+0.007*[#  11]+0.007*[#  12]+0.004*[#  25]+0.004*[#  15]+
    |psi|^2 = 0.998
==== e(  17) =    10.32591 eV ==== 
     psi = 0.269*[#  25]+0.230*[#  18]+0.154*[#  23]+0.069*[#  20]+0.059*[#  17]+
          +0.057*[#  26]+0.030*[#  33]+0.024*[#  24]+0.018*[#  34]+0.018*[#  19]+
          +0.015*[#  29]+0.013*[#  22]+0.013*[#  30]+0.012*[#  28]+0.010*[#  32]+
          +0.006*[#   4]+
    |psi|^2 = 0.998
==== e(  18) =    10.85700 eV ==== 
     psi = 0.233*[#  17]+0.217*[#  26]+0.186*[#  25]+0.155*[#  18]+0.100*[#  23]+
          +0.053*[#  22]+0.050*[#  20]+0.002*[#  24]+0.002*[#  19]+
    |psi|^2 = 1.000
==== e(  19) =    11.22516 eV ==== 
     psi = 0.195*[#  25]+0.191*[#  17]+0.184*[#  26]+0.108*[#  18]+0.074*[#  34]+
          +0.068*[#  23]+0.055*[#  20]+0.041*[#  22]+0.031*[#  29]+0.016*[#  32]+
          +0.007*[#  33]+0.006*[#   4]+0.005*[#  24]+0.004*[#  16]+0.003*[#  11]+
          +0.003*[#  19]+0.003*[#  30]+0.002*[#  14]+0.002*[#  28]+
    |psi|^2 = 0.999
==== e(  20) =    11.58563 eV ==== 
     psi = 0.318*[#  26]+0.158*[#  17]+0.091*[#  24]+0.072*[#  19]+0.044*[#  33]+
          +0.042*[#  28]+0.041*[#  34]+0.035*[#  29]+0.034*[#  22]+0.031*[#  25]+
          +0.029*[#   4]+0.027*[#  18]+0.020*[#  30]+0.019*[#  32]+0.018*[#  23]+
          +0.009*[#  20]+0.003*[#  16]+0.002*[#  11]+
    |psi|^2 = 0.996
==== e(  21) =    12.55200 eV ==== 
     psi = 0.228*[#  19]+0.207*[#  24]+0.137*[#  33]+0.095*[#  34]+0.080*[#  26]+
          +0.064*[#  17]+0.059*[#  29]+0.056*[#  30]+0.041*[#  32]+0.007*[#  15]+
          +0.006*[#  16]+0.005*[#  22]+0.004*[#  12]+0.004*[#  11]+0.002*[#  14]+
    |psi|^2 = 0.997
==== e(  22) =    13.07024 eV ==== 
     psi = 0.339*[#  22]+0.227*[#  24]+0.218*[#  19]+0.062*[#  17]+0.024*[#  32]+
          +0.022*[#  30]+0.020*[#  31]+0.020*[#  29]+0.013*[#  21]+0.012*[#  20]+
          +0.006*[#  23]+0.006*[#   3]+0.005*[#  27]+0.003*[#  18]+0.003*[#  25]+
          +0.003*[#  33]+0.002*[#  14]+0.001*[#  13]+0.001*[#  34]+
    |psi|^2 = 0.990
==== e(  23) =    14.04489 eV ==== 
     psi = 0.233*[#  20]+0.219*[#  21]+0.198*[#  22]+0.134*[#  19]+0.105*[#  24]+
          +0.064*[#  25]+0.044*[#  17]+0.001*[#  23]+
    |psi|^2 = 0.999
==== e(  24) =    14.20844 eV ==== 
     psi = 0.209*[#  22]+0.196*[#  20]+0.193*[#  21]+0.122*[#  19]+0.094*[#  24]+
          +0.053*[#  25]+0.047*[#  17]+0.045*[#  31]+0.023*[#  30]+0.010*[#  33]+
          +0.001*[#  23]+0.001*[#   3]+0.001*[#  32]+
    |psi|^2 = 0.999
==== e(  25) =    14.80804 eV ==== 
     psi = 0.380*[#  21]+0.207*[#  20]+0.132*[#  23]+0.082*[#  18]+0.055*[#  25]+
          +0.050*[#  27]+0.016*[#   3]+0.015*[#  32]+0.013*[#  31]+0.012*[#  30]+
          +0.009*[#  22]+0.008*[#  29]+0.006*[#  19]+0.006*[#  33]+0.004*[#  24]+
          +0.002*[#  17]+0.001*[#  13]+
    |psi|^2 = 0.999
==== e(  26) =    15.46880 eV ==== 
     psi = 0.363*[#  23]+0.231*[#  18]+0.110*[#  21]+0.072*[#  20]+0.063*[#  32]+
          +0.046*[#  31]+0.033*[#  30]+0.032*[#  29]+0.019*[#  25]+0.016*[#  33]+
          +0.004*[#  14]+0.003*[#  13]+0.002*[#  11]+0.002*[#  12]+0.001*[#  15]+
    |psi|^2 = 0.999
==== e(  27) =    21.78452 eV ==== 
     psi = 0.794*[#   4]+0.024*[#  33]+0.024*[#  34]+0.021*[#  16]+0.017*[#  28]+
          +0.017*[#  29]+0.016*[#  15]+0.015*[#  11]+0.012*[#  30]+0.012*[#   2]+
          +0.009*[#  12]+0.009*[#  32]+0.007*[#  14]+
    |psi|^2 = 0.979
==== e(  28) =    22.84626 eV ==== 
     psi = 0.757*[#   3]+0.031*[#  13]+0.023*[#  31]+0.020*[#  27]+0.019*[#  14]+
          +0.019*[#  32]+0.018*[#  12]+0.017*[#  30]+0.016*[#  15]+0.016*[#  11]+
          +0.012*[#  29]+0.010*[#   1]+0.007*[#  33]+0.001*[#  16]+
    |psi|^2 = 0.971
==== e(  29) =    22.89702 eV ==== 
     psi = 0.183*[#  16]+0.167*[#  15]+0.121*[#  11]+0.091*[#  12]+0.064*[#  14]+
          +0.049*[#   4]+0.039*[#  28]+0.032*[#  34]+0.026*[#  33]+0.019*[#  29]+
          +0.012*[#  32]+0.011*[#  30]+0.004*[#   3]+0.004*[#  25]+0.003*[#  18]+
          +0.002*[#  23]+0.001*[#  26]+
    |psi|^2 = 0.833
==== e(  30) =    23.74376 eV ==== 
     psi = 0.339*[#  16]+0.228*[#  11]+0.108*[#  14]+0.069*[#  34]+0.044*[#  29]+
          +0.040*[#  15]+0.024*[#  32]+0.021*[#  12]+0.007*[#   4]+0.004*[#  28]+
          +0.002*[#  33]+0.001*[#  25]+0.001*[#  10]+0.001*[#  18]+
    |psi|^2 = 0.894

 k =   0.1737355902  0.0000000000  0.1737355902
==== e(   1) =   -75.59774 eV ==== 
     psi = 0.986*[#   2]+0.010*[#   4]+0.001*[#  33]+
    |psi|^2 = 1.000
==== e(   2) =   -71.86044 eV ==== 
     psi = 0.987*[#   1]+0.009*[#   3]+0.001*[#  32]+
    |psi|^2 = 1.000
==== e(   3) =   -42.04597 eV ==== 
     psi = 0.803*[#   5]+0.185*[#   8]+0.006*[#  34]+0.001*[#   6]+0.001*[#   9]+
    |psi|^2 = 0.998
==== e(   4) =   -41.54927 eV ==== 
     psi = 0.543*[#   6]+0.445*[#   9]+0.002*[#  33]+0.002*[#   5]+0.001*[#  10]+
          +0.001*[#  15]+
    |psi|^2 = 0.998
==== e(   5) =   -40.88484 eV ==== 
     psi = 0.988*[#  10]+0.004*[#  29]+0.002*[#  32]+
    |psi|^2 = 0.998
==== e(   6) =   -38.13826 eV ==== 
     psi = 0.543*[#   9]+0.444*[#   6]+0.006*[#  31]+0.002*[#   8]+
    |psi|^2 = 0.998
==== e(   7) =   -37.65301 eV ==== 
     psi = 0.801*[#   8]+0.184*[#   5]+0.005*[#   7]+0.002*[#  32]+0.001*[#  29]+
    |psi|^2 = 0.998
==== e(   8) =   -37.28244 eV ==== 
     psi = 0.985*[#   7]+0.004*[#  30]+0.004*[#   8]+0.002*[#  33]+
    |psi|^2 = 0.998
==== e(   9) =    -5.23373 eV ==== 
     psi = 0.869*[#  28]+0.023*[#  26]+0.020*[#  15]+0.018*[#  17]+0.015*[#  16]+
          +0.010*[#  11]+0.010*[#  12]+0.009*[#  24]+0.006*[#   4]+0.006*[#  19]+
          +0.005*[#  14]+0.005*[#  22]+
    |psi|^2 = 0.999
==== e(  10) =    -4.59101 eV ==== 
     psi = 0.874*[#  27]+0.021*[#  14]+0.021*[#  21]+0.016*[#  20]+0.016*[#  13]+
          +0.011*[#  11]+0.011*[#  12]+0.008*[#  23]+0.006*[#   3]+0.005*[#  18]+
          +0.005*[#  15]+0.004*[#  25]+
    |psi|^2 = 0.999
==== e(  11) =     7.17869 eV ==== 
     psi = 0.197*[#  33]+0.148*[#  34]+0.099*[#  29]+0.099*[#  30]+0.081*[#  25]+
          +0.067*[#   4]+0.062*[#  18]+0.049*[#  32]+0.041*[#  23]+0.025*[#  26]+
          +0.022*[#  17]+0.021*[#  20]+0.020*[#  15]+0.015*[#  16]+0.011*[#  11]+
          +0.011*[#  12]+0.010*[#  24]+0.007*[#  19]+0.005*[#  22]+0.005*[#  14]+
          +0.001*[#  28]+
    |psi|^2 = 0.999
==== e(  12) =     7.24708 eV ==== 
     psi = 0.340*[#  34]+0.226*[#  29]+0.113*[#  32]+0.094*[#  16]+0.065*[#  11]+
          +0.031*[#  14]+0.030*[#  26]+0.025*[#  17]+0.024*[#  25]+0.019*[#  18]+
          +0.012*[#  23]+0.006*[#  20]+0.006*[#  22]+0.004*[#  10]+0.003*[#   5]+
          +0.001*[#   8]+
    |psi|^2 = 1.000
==== e(  13) =     7.96804 eV ==== 
     psi = 0.363*[#  31]+0.239*[#  30]+0.124*[#  33]+0.101*[#  13]+0.070*[#  12]+
          +0.033*[#  15]+0.015*[#  21]+0.012*[#  20]+0.012*[#  22]+0.010*[#  19]+
          +0.005*[#   7]+0.005*[#  24]+0.003*[#   6]+0.003*[#  17]+0.003*[#  25]+
          +0.002*[#   9]+
    |psi|^2 = 0.999
==== e(  14) =     8.09757 eV ==== 
     psi = 0.185*[#  33]+0.175*[#  24]+0.139*[#  34]+0.123*[#  19]+0.098*[#  30]+
          +0.096*[#  29]+0.048*[#  26]+0.048*[#  32]+0.042*[#  17]+0.012*[#  15]+
          +0.009*[#  22]+0.009*[#  16]+0.005*[#  11]+0.005*[#  12]+0.003*[#  14]+
    |psi|^2 = 0.999
==== e(  15) =     8.11557 eV ==== 
     psi = 0.235*[#  32]+0.177*[#  31]+0.120*[#  29]+0.120*[#  30]+0.081*[#   3]+
          +0.058*[#  33]+0.040*[#  22]+0.031*[#  19]+0.022*[#  14]+0.020*[#  24]+
          +0.017*[#  13]+0.013*[#  21]+0.012*[#  11]+0.012*[#  12]+0.011*[#  20]+
          +0.010*[#  17]+0.005*[#  15]+0.005*[#  23]+0.004*[#  18]+0.003*[#  25]+
          +0.001*[#   1]+
    |psi|^2 = 0.998
==== e(  16) =     9.33235 eV ==== 
     psi = 0.252*[#  32]+0.191*[#  31]+0.131*[#  29]+0.130*[#  30]+0.076*[#  23]+
          +0.062*[#  33]+0.061*[#  18]+0.022*[#  21]+0.020*[#  20]+0.016*[#  14]+
          +0.012*[#  13]+0.008*[#  11]+0.008*[#  12]+0.004*[#  15]+0.004*[#  25]+
    |psi|^2 = 0.998
==== e(  17) =    10.23069 eV ==== 
     psi = 0.269*[#  25]+0.229*[#  18]+0.154*[#  23]+0.069*[#  20]+0.050*[#  17]+
          +0.049*[#  26]+0.038*[#  33]+0.024*[#  34]+0.021*[#  24]+0.018*[#  29]+
          +0.016*[#  30]+0.016*[#  19]+0.013*[#  32]+0.012*[#  28]+0.011*[#  22]+
          +0.008*[#   4]+
    |psi|^2 = 0.998
==== e(  18) =    10.88509 eV ==== 
     psi = 0.240*[#  17]+0.212*[#  26]+0.186*[#  25]+0.155*[#  18]+0.099*[#  23]+
          +0.055*[#  22]+0.050*[#  20]+
    |psi|^2 = 1.000
==== e(  19) =    11.20863 eV ==== 
     psi = 0.211*[#  17]+0.204*[#  25]+0.166*[#  26]+0.115*[#  18]+0.073*[#  34]+
          +0.072*[#  23]+0.057*[#  20]+0.045*[#  22]+0.028*[#  29]+0.014*[#  32]+
          +0.005*[#  16]+0.004*[#  11]+0.002*[#  14]+
    |psi|^2 = 0.999
==== e(  20) =    11.48797 eV ==== 
     psi = 0.359*[#  26]+0.151*[#  17]+0.101*[#  24]+0.079*[#  19]+0.047*[#  33]+
          +0.047*[#  28]+0.033*[#  22]+0.031*[#   4]+0.028*[#  29]+0.025*[#  34]+
          +0.021*[#  30]+0.021*[#  18]+0.020*[#  25]+0.015*[#  32]+0.014*[#  23]+
          +0.005*[#  20]+
    |psi|^2 = 0.996
==== e(  21) =    12.33428 eV ==== 
     psi = 0.230*[#  19]+0.220*[#  24]+0.130*[#  33]+0.090*[#  34]+0.084*[#  26]+
          +0.064*[#  17]+0.057*[#  29]+0.054*[#  30]+0.039*[#  32]+0.008*[#  15]+
          +0.006*[#  16]+0.005*[#  22]+0.004*[#  12]+0.004*[#  11]+0.002*[#  14]+
    |psi|^2 = 0.998
==== e(  22) =    12.89483 eV ==== 
     psi = 0.343*[#  22]+0.223*[#  24]+0.220*[#  19]+0.063*[#  17]+0.027*[#  32]+
          +0.022*[#  31]+0.022*[#  30]+0.021*[#  29]+0.010*[#  21]+0.009*[#  20]+
          +0.006*[#   3]+0.005*[#  23]+0.005*[#  27]+0.004*[#  33]+0.003*[#  18]+
          +0.003*[#  25]+0.002*[#  14]+0.001*[#  13]+
    |psi|^2 = 0.989
==== e(  23) =    14.08120 eV ==== 
     psi = 0.237*[#  20]+0.218*[#  21]+0.196*[#  22]+0.134*[#  19]+0.104*[#  24]+
          +0.065*[#  25]+0.044*[#  17]+
    |psi|^2 = 0.999
==== e(  24) =    14.22546 eV ==== 
     psi = 0.212*[#  22]+0.203*[#  20]+0.185*[#  21]+0.128*[#  19]+0.098*[#  24]+
          +0.055*[#  25]+0.048*[#  17]+0.040*[#  31]+0.020*[#  30]+0.009*[#  33]+
    |psi|^2 = 0.999
==== e(  25) =    14.76397 eV ==== 
     psi = 0.396*[#  21]+0.204*[#  20]+0.136*[#  23]+0.085*[#  18]+0.055*[#  25]+
          +0.053*[#  27]+0.014*[#  32]+0.014*[#   3]+0.008*[#  30]+0.008*[#  31]+
          +0.007*[#  29]+0.005*[#  22]+0.004*[#  33]+0.004*[#  19]+0.003*[#  24]+
          +0.001*[#  17]+
    |psi|^2 = 0.999
==== e(  26) =    15.28532 eV ==== 
     psi = 0.373*[#  23]+0.237*[#  18]+0.115*[#  21]+0.073*[#  20]+0.056*[#  32]+
          +0.041*[#  31]+0.030*[#  30]+0.029*[#  29]+0.019*[#  25]+0.014*[#  33]+
          +0.004*[#  14]+0.003*[#  13]+0.002*[#  11]+0.002*[#  12]+0.001*[#  15]+
    |psi|^2 = 0.999
==== e(  27) =    21.52640 eV ==== 
     psi = 0.834*[#   4]+0.022*[#  33]+0.019*[#  28]+0.016*[#  34]+0.015*[#  15]+
          +0.012*[#   2]+0.011*[#  16]+0.011*[#  29]+0.011*[#  30]+0.008*[#  11]+
          +0.008*[#  12]+0.006*[#  32]+0.004*[#  14]+
    |psi|^2 = 0.981
==== e(  28) =    22.60909 eV ==== 
     psi = 0.830*[#   3]+0.020*[#  32]+0.020*[#  27]+0.017*[#  14]+0.015*[#  31]+
          +0.013*[#  13]+0.011*[#   1]+0.011*[#  29]+0.010*[#  30]+0.010*[#  11]+
          +0.009*[#  12]+0.005*[#  33]+0.005*[#  15]+
    |psi|^2 = 0.977
==== e(  29) =    23.30445 eV ==== 
     psi = 0.202*[#  15]+0.149*[#  16]+0.104*[#  11]+0.102*[#  12]+0.051*[#  14]+
          +0.032*[#  28]+0.026*[#   4]+0.023*[#  33]+0.018*[#  34]+0.011*[#  30]+
          +0.011*[#  29]+0.005*[#  32]+0.004*[#  25]+0.003*[#  18]+0.002*[#  23]+
    |psi|^2 = 0.749
==== e(  30) =    23.55723 eV ==== 
     psi = 0.373*[#  16]+0.245*[#  11]+0.122*[#  14]+0.093*[#  34]+0.060*[#  29]+
          +0.032*[#  32]+
    |psi|^2 = 0.930

Lowdin Charges: 

     Atom #   1: total charge =  15.6182, s, p, d, f =   2.3151  6.6699  6.6332
     Atom #   2: total charge =   6.5435, s, p, d, f =   1.6120  4.9314  0.0000
     Spilling Parameter:  -0.0074

     PROJWFC      :     5.62s CPU         5.95s WALL


   This run was terminated on:  19:43: 1  15Aug2017            

=------------------------------------------------------------------------------=
   JOB DONE.
=------------------------------------------------------------------------------=
