
     Program PROJWFC v.6.1 (svn rev. 13369) starts on 15Aug2017 at 19:42:28 

     This program is part of the open-source Quantum ESPRESSO suite
     for quantum simulation of materials; please cite
         "P. Giannozzi et al., J. Phys.:Condens. Matter 21 395502 (2009);
          URL http://www.quantum-espresso.org", 
     in publications or presentations arising from this work. More details at
     http://www.quantum-espresso.org/quote

     Parallel version (MPI), running on     8 processors
     R & G space division:  proc/nbgrp/npool/nimage =       8

     Reading data from directory:
     ./outdir/pwscf.save

   Info: using nr1, nr2, nr3 values from input

   Info: using nr1, nr2, nr3 values from input

     IMPORTANT: XC functional enforced from input :
     Exchange-correlation      =  SLA  PZ   NOGX NOGC ( 1  1  0  0 0 0)
     Any further DFT definition will be discarded
     Please, verify this is what you really want

               file Fe.rel-pz-spn-kjpaw_psl.0.2.1.UPF: wavefunction(s)  3D renormalized
               file O.rel-pz-n-kjpaw_psl.0.1.UPF: wavefunction(s)  2P 2P renormalized

     Parallelization info
     --------------------
     sticks:   dense  smooth     PW     G-vecs:    dense   smooth      PW
     Min          33      33     12                  371      371      80
     Max          35      35     13                  372      372      81
     Sum         271     271     97                 2975     2975     645


     Check: negative/imaginary core charge=   -0.007906    0.000000

     negative rho (up, down):  0.000E+00 2.662E-02

     Gaussian broadening (read from file): ngauss,degauss=   0    0.020000


     Calling projwave_nc .... 

     Atomic states used for projection
     (read from pseudopotential files):

     state #   1: atom   1 (Fe ), wfc  1 (j=0.5 l=0 m_j=-0.5)
     state #   2: atom   1 (Fe ), wfc  1 (j=0.5 l=0 m_j= 0.5)
     state #   3: atom   1 (Fe ), wfc  2 (j=0.5 l=0 m_j=-0.5)
     state #   4: atom   1 (Fe ), wfc  2 (j=0.5 l=0 m_j= 0.5)
     state #   5: atom   1 (Fe ), wfc  3 (j=0.5 l=1 m_j=-0.5)
     state #   6: atom   1 (Fe ), wfc  3 (j=0.5 l=1 m_j= 0.5)
     state #   7: atom   1 (Fe ), wfc  4 (j=1.5 l=1 m_j=-1.5)
     state #   8: atom   1 (Fe ), wfc  4 (j=1.5 l=1 m_j=-0.5)
     state #   9: atom   1 (Fe ), wfc  4 (j=1.5 l=1 m_j= 0.5)
     state #  10: atom   1 (Fe ), wfc  4 (j=1.5 l=1 m_j= 1.5)
     state #  11: atom   1 (Fe ), wfc  5 (j=0.5 l=1 m_j=-0.5)
     state #  12: atom   1 (Fe ), wfc  5 (j=0.5 l=1 m_j= 0.5)
     state #  13: atom   1 (Fe ), wfc  6 (j=1.5 l=1 m_j=-1.5)
     state #  14: atom   1 (Fe ), wfc  6 (j=1.5 l=1 m_j=-0.5)
     state #  15: atom   1 (Fe ), wfc  6 (j=1.5 l=1 m_j= 0.5)
     state #  16: atom   1 (Fe ), wfc  6 (j=1.5 l=1 m_j= 1.5)
     state #  17: atom   1 (Fe ), wfc  7 (j=1.5 l=2 m_j=-1.5)
     state #  18: atom   1 (Fe ), wfc  7 (j=1.5 l=2 m_j=-0.5)
     state #  19: atom   1 (Fe ), wfc  7 (j=1.5 l=2 m_j= 0.5)
     state #  20: atom   1 (Fe ), wfc  7 (j=1.5 l=2 m_j= 1.5)
     state #  21: atom   1 (Fe ), wfc  8 (j=2.5 l=2 m_j=-2.5)
     state #  22: atom   1 (Fe ), wfc  8 (j=2.5 l=2 m_j=-1.5)
     state #  23: atom   1 (Fe ), wfc  8 (j=2.5 l=2 m_j=-0.5)
     state #  24: atom   1 (Fe ), wfc  8 (j=2.5 l=2 m_j= 0.5)
     state #  25: atom   1 (Fe ), wfc  8 (j=2.5 l=2 m_j= 1.5)
     state #  26: atom   1 (Fe ), wfc  8 (j=2.5 l=2 m_j= 2.5)
     state #  27: atom   2 (O  ), wfc  1 (j=0.5 l=0 m_j=-0.5)
     state #  28: atom   2 (O  ), wfc  1 (j=0.5 l=0 m_j= 0.5)
     state #  29: atom   2 (O  ), wfc  2 (j=0.5 l=1 m_j=-0.5)
     state #  30: atom   2 (O  ), wfc  2 (j=0.5 l=1 m_j= 0.5)
     state #  31: atom   2 (O  ), wfc  3 (j=1.5 l=1 m_j=-1.5)
     state #  32: atom   2 (O  ), wfc  3 (j=1.5 l=1 m_j=-0.5)
     state #  33: atom   2 (O  ), wfc  3 (j=1.5 l=1 m_j= 0.5)
     state #  34: atom   2 (O  ), wfc  3 (j=1.5 l=1 m_j= 1.5)

 k =   0.0144779659  0.0144779659  0.0144779659
==== e(   1) =   -75.57094 eV ==== 
     psi = 0.954*[#   2]+0.014*[#   4]+0.010*[#  16]+0.007*[#  15]+0.007*[#  11]+
          +0.003*[#  14]+0.003*[#  12]+
    |psi|^2 = 1.000
==== e(   2) =   -71.83451 eV ==== 
     psi = 0.953*[#   1]+0.016*[#   3]+0.010*[#  13]+0.007*[#  14]+0.007*[#  12]+
          +0.003*[#  15]+0.003*[#  11]+
    |psi|^2 = 1.000
==== e(   3) =   -41.93565 eV ==== 
     psi = 0.795*[#   5]+0.182*[#   8]+0.015*[#  11]+0.004*[#  14]+0.002*[#  29]+
    |psi|^2 = 0.999
==== e(   4) =   -41.45426 eV ==== 
     psi = 0.536*[#   6]+0.440*[#   9]+0.010*[#  12]+0.008*[#  15]+0.001*[#  30]+
          +0.001*[#  33]+
    |psi|^2 = 0.999
==== e(   5) =   -40.77308 eV ==== 
     psi = 0.977*[#  10]+0.018*[#  16]+0.002*[#  34]+
    |psi|^2 = 0.999
==== e(   6) =   -38.02539 eV ==== 
     psi = 0.537*[#   9]+0.442*[#   6]+0.009*[#  15]+0.007*[#  12]+0.001*[#  33]+
          +0.001*[#  30]+
    |psi|^2 = 0.999
==== e(   7) =   -37.55586 eV ==== 
     psi = 0.796*[#   8]+0.182*[#   5]+0.013*[#  14]+0.003*[#  11]+0.002*[#  32]+
    |psi|^2 = 0.999
==== e(   8) =   -37.16930 eV ==== 
     psi = 0.978*[#   7]+0.016*[#  13]+0.002*[#  31]+
    |psi|^2 = 0.999
==== e(   9) =    -6.43373 eV ==== 
     psi = 0.618*[#  28]+0.311*[#   4]+0.019*[#  16]+0.013*[#  15]+0.013*[#   2]+
          +0.013*[#  11]+0.006*[#  14]+0.006*[#  12]+
    |psi|^2 = 1.000
==== e(  10) =    -5.82495 eV ==== 
     psi = 0.617*[#  27]+0.311*[#   3]+0.020*[#  13]+0.013*[#   1]+0.013*[#  14]+
          +0.013*[#  12]+0.007*[#  15]+0.006*[#  11]+
    |psi|^2 = 1.000
==== e(  11) =     9.66371 eV ==== 
     psi = 0.185*[#  34]+0.156*[#  17]+0.146*[#  25]+0.106*[#  18]+0.067*[#  23]+
          +0.065*[#  33]+0.056*[#  29]+0.055*[#  26]+0.039*[#  20]+0.035*[#  22]+
          +0.034*[#  30]+0.027*[#  32]+0.014*[#   4]+0.007*[#  28]+0.002*[#  16]+
    |psi|^2 = 0.998
==== e(  12) =     9.68852 eV ==== 
     psi = 0.190*[#  17]+0.174*[#  34]+0.114*[#  18]+0.103*[#  33]+0.096*[#  24]+
          +0.072*[#  23]+0.071*[#  19]+0.054*[#  30]+0.043*[#  22]+0.031*[#  26]+
          +0.030*[#  29]+0.015*[#  32]+0.002*[#  16]+0.001*[#  15]+
    |psi|^2 = 0.998
==== e(  13) =     9.71434 eV ==== 
     psi = 0.210*[#  26]+0.188*[#  29]+0.145*[#  24]+0.107*[#  19]+0.090*[#  32]+
          +0.087*[#  33]+0.062*[#  25]+0.046*[#  30]+0.017*[#  20]+0.016*[#  17]+
          +0.010*[#  18]+0.006*[#  34]+0.006*[#  23]+0.004*[#  22]+0.002*[#  11]+
          +0.001*[#  14]+0.001*[#  15]+
    |psi|^2 = 0.998
==== e(  14) =    10.05124 eV ==== 
     psi = 0.430*[#  25]+0.225*[#  17]+0.118*[#  20]+0.050*[#  22]+0.045*[#  18]+
          +0.039*[#  24]+0.029*[#  19]+0.027*[#  23]+0.012*[#  29]+0.012*[#  26]+
          +0.006*[#  32]+0.002*[#  33]+
    |psi|^2 = 0.999
==== e(  15) =    10.06154 eV ==== 
     psi = 0.369*[#  26]+0.265*[#  18]+0.163*[#  23]+0.058*[#  24]+0.044*[#  19]+
          +0.031*[#  17]+0.021*[#  34]+0.012*[#  33]+0.009*[#  29]+0.008*[#  25]+
          +0.007*[#  22]+0.007*[#  30]+0.003*[#  32]+0.002*[#  20]+
    |psi|^2 = 0.999
==== e(  16) =    10.46849 eV ==== 
     psi = 0.204*[#  34]+0.125*[#  25]+0.120*[#  29]+0.114*[#  33]+0.078*[#  26]+
          +0.072*[#  30]+0.069*[#  18]+0.047*[#  32]+0.046*[#  17]+0.040*[#  23]+
          +0.035*[#  20]+0.023*[#   4]+0.013*[#  28]+0.011*[#  22]+
    |psi|^2 = 0.997
==== e(  17) =    10.68758 eV ==== 
     psi = 0.255*[#  31]+0.248*[#  30]+0.181*[#  32]+0.118*[#  29]+0.095*[#  33]+
          +0.034*[#   3]+0.018*[#  27]+0.014*[#  19]+0.009*[#  22]+0.007*[#  21]+
          +0.003*[#  20]+0.002*[#  17]+0.002*[#  25]+0.002*[#  24]+0.001*[#  12]+
          +0.001*[#  13]+
    |psi|^2 = 0.996
==== e(  18) =    10.86212 eV ==== 
     psi = 0.381*[#  30]+0.209*[#  32]+0.146*[#  33]+0.117*[#  29]+0.049*[#  31]+
          +0.021*[#  21]+0.014*[#  23]+0.012*[#  34]+0.010*[#  18]+0.009*[#  17]+
          +0.005*[#  12]+0.004*[#  19]+0.003*[#  20]+0.002*[#  22]+0.002*[#  25]+
          +0.002*[#  14]+0.002*[#  26]+0.002*[#  24]+0.002*[#  15]+0.001*[#  11]+
    |psi|^2 = 0.996
==== e(  19) =    10.87479 eV ==== 
     psi = 0.597*[#  31]+0.139*[#  29]+0.138*[#  32]+0.036*[#  30]+0.022*[#  20]+
          +0.016*[#  23]+0.015*[#  19]+0.008*[#  18]+0.007*[#  13]+0.004*[#  26]+
          +0.004*[#  21]+0.003*[#  25]+0.002*[#  11]+0.002*[#  14]+0.002*[#  22]+
    |psi|^2 = 0.996
==== e(  20) =    10.93927 eV ==== 
     psi = 0.283*[#  34]+0.254*[#  33]+0.167*[#  24]+0.121*[#  19]+0.067*[#  17]+
          +0.031*[#  30]+0.030*[#  26]+0.017*[#  22]+0.006*[#  18]+0.006*[#  23]+
          +0.005*[#  31]+0.003*[#  16]+0.003*[#  15]+0.001*[#  32]+
    |psi|^2 = 0.997
==== e(  21) =    10.94336 eV ==== 
     psi = 0.218*[#  32]+0.205*[#  26]+0.161*[#  29]+0.080*[#  34]+0.078*[#  17]+
          +0.073*[#  33]+0.065*[#  24]+0.040*[#  19]+0.024*[#  30]+0.018*[#  22]+
          +0.014*[#  25]+0.007*[#  31]+0.004*[#  23]+0.002*[#  14]+0.002*[#  11]+
          +0.002*[#  20]+
    |psi|^2 = 0.997
==== e(  22) =    12.92526 eV ==== 
     psi = 0.518*[#  19]+0.398*[#  24]+0.031*[#  21]+0.012*[#  22]+0.012*[#  20]+
          +0.004*[#  30]+0.004*[#  32]+0.003*[#  25]+0.003*[#  17]+0.002*[#  29]+
          +0.001*[#  33]+0.001*[#  31]+
    |psi|^2 = 0.992
==== e(  23) =    12.94656 eV ==== 
     psi = 0.378*[#  20]+0.337*[#  21]+0.110*[#  22]+0.104*[#  25]+0.024*[#  17]+
          +0.012*[#  19]+0.009*[#  24]+0.005*[#  30]+0.004*[#  31]+0.003*[#  33]+
          +0.002*[#  23]+0.001*[#  18]+
    |psi|^2 = 0.992
==== e(  24) =    12.98701 eV ==== 
     psi = 0.671*[#  22]+0.149*[#  17]+0.059*[#  21]+0.039*[#  20]+0.018*[#  19]+
          +0.015*[#  31]+0.014*[#  24]+0.011*[#  25]+0.007*[#  32]+0.004*[#  29]+
          +0.001*[#  27]+0.001*[#  30]+0.001*[#   3]+
    |psi|^2 = 0.992
==== e(  25) =    13.80552 eV ==== 
     psi = 0.518*[#  23]+0.324*[#  18]+0.046*[#  21]+0.044*[#  20]+0.020*[#  32]+
          +0.019*[#  31]+0.012*[#  25]+0.010*[#  29]+
    |psi|^2 = 0.995
==== e(  26) =    13.81091 eV ==== 
     psi = 0.486*[#  21]+0.281*[#  20]+0.075*[#  25]+0.061*[#  23]+0.038*[#  18]+
          +0.022*[#  30]+0.013*[#  31]+0.011*[#  33]+0.002*[#  32]+0.001*[#  22]+
          +0.001*[#  29]+
    |psi|^2 = 0.995
==== e(  27) =    14.75678 eV ==== 
     psi = 0.521*[#   4]+0.355*[#  28]+0.018*[#  16]+0.017*[#  34]+0.016*[#   2]+
          +0.012*[#  15]+0.011*[#  11]+0.011*[#  33]+0.011*[#  29]+0.006*[#  14]+
          +0.006*[#  12]+0.006*[#  32]+0.005*[#  30]+
    |psi|^2 = 0.995
==== e(  28) =    15.57325 eV ==== 
     psi = 0.519*[#   3]+0.357*[#  27]+0.018*[#  13]+0.017*[#   1]+0.016*[#  31]+
          +0.012*[#  14]+0.012*[#  12]+0.011*[#  32]+0.010*[#  30]+0.006*[#  15]+
          +0.006*[#  11]+0.005*[#  33]+0.005*[#  29]+
    |psi|^2 = 0.995
==== e(  29) =    28.52214 eV ==== 
     psi = 0.014*[#  16]+0.010*[#  15]+0.009*[#  11]+0.006*[#   4]+0.005*[#  14]+
          +0.005*[#  12]+
    |psi|^2 = 0.053
==== e(  30) =    29.11735 eV ==== 
     psi = 0.011*[#  13]+0.007*[#  14]+0.007*[#  12]+0.005*[#   3]+0.003*[#  11]+
          +0.003*[#  15]+0.001*[#  22]+
    |psi|^2 = 0.042

 k =  -0.0144779659  0.0434338976  0.0434338976
==== e(   1) =   -75.57908 eV ==== 
     psi = 0.912*[#   2]+0.028*[#  15]+0.023*[#  16]+0.015*[#  11]+0.013*[#  12]+
          +0.008*[#  14]+
    |psi|^2 = 1.000
==== e(   2) =   -71.84205 eV ==== 
     psi = 0.911*[#   1]+0.028*[#  14]+0.023*[#  13]+0.015*[#  12]+0.013*[#  11]+
          +0.008*[#  15]+
    |psi|^2 = 1.000
==== e(   3) =   -41.97097 eV ==== 
     psi = 0.799*[#   5]+0.183*[#   8]+0.008*[#  11]+0.002*[#  14]+0.002*[#  15]+
          +0.002*[#  29]+0.001*[#   4]+
    |psi|^2 = 0.999
==== e(   4) =   -41.49200 eV ==== 
     psi = 0.539*[#   6]+0.444*[#   9]+0.004*[#  12]+0.003*[#  15]+0.002*[#   4]+
          +0.002*[#  16]+0.001*[#  14]+0.001*[#  11]+
    |psi|^2 = 0.999
==== e(   5) =   -40.80860 eV ==== 
     psi = 0.982*[#  10]+0.010*[#  16]+0.002*[#  34]+0.002*[#  15]+0.001*[#   4]+
    |psi|^2 = 0.999
==== e(   6) =   -38.05912 eV ==== 
     psi = 0.539*[#   9]+0.444*[#   6]+0.004*[#  15]+0.004*[#  12]+0.001*[#   3]+
          +0.001*[#  11]+0.001*[#  30]+0.001*[#  33]+
    |psi|^2 = 0.999
==== e(   7) =   -37.59226 eV ==== 
     psi = 0.800*[#   8]+0.183*[#   5]+0.005*[#  14]+0.002*[#   3]+0.002*[#  12]+
          +0.002*[#  13]+0.001*[#  32]+0.001*[#   7]+
    |psi|^2 = 0.999
==== e(   8) =   -37.20275 eV ==== 
     psi = 0.982*[#   7]+0.009*[#  13]+0.002*[#  31]+0.002*[#  14]+0.001*[#   3]+
    |psi|^2 = 0.999
==== e(   9) =    -6.22518 eV ==== 
     psi = 0.609*[#  28]+0.174*[#   4]+0.063*[#  15]+0.053*[#  16]+0.034*[#  11]+
          +0.031*[#  12]+0.018*[#  14]+0.015*[#   2]+
    |psi|^2 = 1.000
==== e(  10) =    -5.61447 eV ==== 
     psi = 0.607*[#  27]+0.173*[#   3]+0.064*[#  14]+0.053*[#  13]+0.034*[#  12]+
          +0.031*[#  11]+0.018*[#  15]+0.016*[#   1]+
    |psi|^2 = 1.000
==== e(  11) =     8.42137 eV ==== 
     psi = 0.185*[#  33]+0.144*[#  34]+0.098*[#  29]+0.095*[#  30]+0.072*[#   4]+
          +0.063*[#  25]+0.055*[#  26]+0.051*[#  18]+0.050*[#  17]+0.048*[#  32]+
          +0.038*[#  28]+0.033*[#  23]+0.020*[#  24]+0.016*[#  20]+0.014*[#  19]+
          +0.012*[#  22]+0.003*[#   2]+
    |psi|^2 = 0.998
==== e(  12) =     8.75302 eV ==== 
     psi = 0.224*[#  24]+0.161*[#  19]+0.157*[#  33]+0.120*[#  34]+0.079*[#  30]+
          +0.077*[#  29]+0.061*[#  17]+0.060*[#  26]+0.038*[#  32]+0.014*[#  22]+
          +0.002*[#  25]+0.002*[#  18]+0.001*[#  23]+
    |psi|^2 = 0.999
==== e(  13) =     9.15969 eV ==== 
     psi = 0.204*[#  34]+0.152*[#  29]+0.142*[#  26]+0.130*[#  17]+0.082*[#  25]+
          +0.071*[#  18]+0.069*[#  32]+0.046*[#  23]+0.030*[#  22]+0.021*[#  20]+
          +0.017*[#  24]+0.012*[#  19]+0.009*[#  16]+0.006*[#  11]+0.003*[#  14]+
          +0.002*[#   4]+0.002*[#  33]+0.001*[#  30]+
    |psi|^2 = 0.998
==== e(  14) =     9.41142 eV ==== 
     psi = 0.237*[#  32]+0.188*[#  31]+0.132*[#  30]+0.118*[#  29]+0.094*[#   3]+
          +0.064*[#  33]+0.053*[#  27]+0.022*[#  22]+0.018*[#  19]+0.017*[#  21]+
          +0.015*[#  20]+0.011*[#  24]+0.006*[#  17]+0.005*[#  18]+0.005*[#  23]+
          +0.004*[#   1]+0.002*[#  25]+0.001*[#  14]+
    |psi|^2 = 0.996
==== e(  15) =    10.10848 eV ==== 
     psi = 0.221*[#  26]+0.216*[#  17]+0.200*[#  25]+0.167*[#  18]+0.075*[#  23]+
          +0.048*[#  22]+0.048*[#  20]+0.007*[#  24]+0.005*[#  19]+0.004*[#  30]+
          +0.003*[#  29]+0.001*[#  31]+0.001*[#  32]+
    |psi|^2 = 0.999
==== e(  16) =    10.17448 eV ==== 
     psi = 0.241*[#  32]+0.182*[#  31]+0.137*[#  29]+0.134*[#  30]+0.081*[#  18]+
          +0.070*[#  23]+0.060*[#  33]+0.042*[#  20]+0.025*[#  21]+0.010*[#  17]+
          +0.003*[#  22]+0.002*[#  24]+0.002*[#  25]+0.001*[#  14]+
    |psi|^2 = 0.996
==== e(  17) =    10.27577 eV ==== 
     psi = 0.201*[#  25]+0.170*[#  18]+0.162*[#  23]+0.161*[#  26]+0.110*[#  17]+
          +0.050*[#  20]+0.041*[#  24]+0.038*[#  19]+0.022*[#  22]+0.015*[#  32]+
          +0.009*[#  33]+0.007*[#  30]+0.005*[#  34]+0.003*[#  29]+0.002*[#  21]+
    |psi|^2 = 0.999
==== e(  18) =    10.42296 eV ==== 
     psi = 0.417*[#  31]+0.262*[#  30]+0.121*[#  33]+0.037*[#  21]+0.027*[#  22]+
          +0.026*[#  20]+0.022*[#  25]+0.014*[#  19]+0.013*[#  24]+0.012*[#  13]+
          +0.012*[#  32]+0.009*[#  23]+0.008*[#  12]+0.005*[#  29]+0.004*[#  15]+
          +0.003*[#  18]+0.002*[#  17]+
    |psi|^2 = 0.996
==== e(  19) =    10.72440 eV ==== 
     psi = 0.187*[#  25]+0.134*[#  34]+0.116*[#  26]+0.099*[#  18]+0.076*[#  17]+
          +0.072*[#  29]+0.069*[#  23]+0.051*[#  20]+0.044*[#  32]+0.042*[#  33]+
          +0.029*[#   4]+0.024*[#  28]+0.016*[#  22]+0.014*[#  30]+0.008*[#  24]+
          +0.006*[#  19]+0.002*[#  15]+0.002*[#   2]+0.002*[#  16]+0.001*[#  11]+
          +0.001*[#  12]+
    |psi|^2 = 0.998
==== e(  20) =    11.31137 eV ==== 
     psi = 0.197*[#  34]+0.176*[#  26]+0.127*[#  29]+0.117*[#  17]+0.069*[#  32]+
          +0.051*[#  24]+0.046*[#  33]+0.041*[#  19]+0.040*[#  25]+0.028*[#  18]+
          +0.024*[#  22]+0.019*[#  23]+0.019*[#  30]+0.012*[#   4]+0.012*[#  20]+
          +0.011*[#  28]+0.003*[#  16]+0.002*[#  11]+
    |psi|^2 = 0.997
==== e(  21) =    12.04773 eV ==== 
     psi = 0.187*[#  24]+0.179*[#  33]+0.166*[#  19]+0.129*[#  34]+0.083*[#  29]+
          +0.079*[#  30]+0.064*[#  26]+0.047*[#  17]+0.046*[#  32]+0.009*[#  22]+
          +0.002*[#  15]+0.001*[#  16]+
    |psi|^2 = 0.996
==== e(  22) =    13.04884 eV ==== 
     psi = 0.225*[#  21]+0.212*[#  20]+0.175*[#  22]+0.152*[#  19]+0.122*[#  24]+
          +0.059*[#  25]+0.039*[#  17]+0.002*[#  23]+0.001*[#  18]+
    |psi|^2 = 0.993
==== e(  23) =    13.17012 eV ==== 
     psi = 0.195*[#  20]+0.187*[#  21]+0.178*[#  19]+0.141*[#  24]+0.098*[#  22]+
          +0.054*[#  25]+0.047*[#  31]+0.036*[#  30]+0.022*[#  17]+0.015*[#  33]+
          +0.005*[#  23]+0.004*[#  27]+0.003*[#  18]+0.003*[#   3]+0.001*[#  12]+
          +0.001*[#  13]+
    |psi|^2 = 0.993
==== e(  24) =    13.32331 eV ==== 
     psi = 0.476*[#  22]+0.179*[#  19]+0.144*[#  24]+0.104*[#  17]+0.030*[#  21]+
          +0.015*[#  31]+0.008*[#  32]+0.005*[#  27]+0.005*[#  29]+0.005*[#  23]+
          +0.003*[#  18]+0.003*[#  20]+0.003*[#  30]+0.002*[#  14]+0.002*[#   3]+
          +0.002*[#  13]+0.001*[#  11]+
    |psi|^2 = 0.994
==== e(  25) =    14.06523 eV ==== 
     psi = 0.353*[#  21]+0.222*[#  20]+0.130*[#  23]+0.081*[#  18]+0.059*[#  25]+
          +0.031*[#  31]+0.022*[#  30]+0.019*[#   3]+0.018*[#  27]+0.012*[#  22]+
          +0.011*[#  32]+0.011*[#  33]+0.007*[#  19]+0.006*[#  29]+0.005*[#  24]+
          +0.003*[#  17]+0.002*[#  13]+0.001*[#  12]+
    |psi|^2 = 0.996
==== e(  26) =    14.68008 eV ==== 
     psi = 0.361*[#  23]+0.228*[#  18]+0.107*[#  21]+0.073*[#  20]+0.068*[#  32]+
          +0.050*[#  31]+0.035*[#  30]+0.034*[#  29]+0.019*[#  25]+0.017*[#  33]+
          +0.001*[#  14]+
    |psi|^2 = 0.996
==== e(  27) =    15.96391 eV ==== 
     psi = 0.309*[#   4]+0.300*[#  28]+0.058*[#  33]+0.058*[#  15]+0.048*[#  16]+
          +0.047*[#  34]+0.032*[#  11]+0.031*[#  29]+0.028*[#  30]+0.028*[#  12]+
          +0.017*[#   2]+0.016*[#  14]+0.016*[#  32]+0.002*[#  26]+0.001*[#  17]+
    |psi|^2 = 0.995
==== e(  28) =    16.79818 eV ==== 
     psi = 0.297*[#   3]+0.295*[#  27]+0.058*[#  32]+0.058*[#  14]+0.048*[#  13]+
          +0.047*[#  31]+0.032*[#  12]+0.031*[#  30]+0.029*[#  29]+0.028*[#  11]+
          +0.018*[#   1]+0.016*[#  15]+0.016*[#  33]+0.006*[#  21]+0.005*[#  20]+
          +0.002*[#  23]+0.002*[#  18]+0.002*[#  22]+0.001*[#  25]+0.001*[#  19]+
    |psi|^2 = 0.994
==== e(  29) =    26.83018 eV ==== 
     psi = 0.121*[#  16]+0.080*[#  11]+0.047*[#   4]+0.041*[#  14]+0.005*[#   2]+
          +0.005*[#  15]+0.003*[#  34]+0.003*[#  10]+0.003*[#  12]+0.002*[#  29]+
          +0.002*[#   5]+0.001*[#  28]+
    |psi|^2 = 0.319
==== e(  30) =    27.66800 eV ==== 
     psi = 0.113*[#  13]+0.074*[#  12]+0.044*[#   3]+0.037*[#  15]+0.005*[#   1]+
          +0.005*[#  14]+0.003*[#  21]+0.003*[#  22]+0.003*[#  20]+0.003*[#   7]+
          +0.003*[#  11]+0.002*[#  31]+0.002*[#  19]+0.002*[#   6]+0.002*[#  30]+
          +0.002*[#  24]+
    |psi|^2 = 0.307

 k =  -0.0434338976  0.0723898293  0.0723898293
==== e(   1) =   -75.57919 eV ==== 
     psi = 0.911*[#   2]+0.023*[#  16]+0.023*[#  15]+0.015*[#  11]+0.011*[#  12]+
          +0.008*[#  14]+0.004*[#   4]+0.001*[#  34]+
    |psi|^2 = 1.000
==== e(   2) =   -71.84161 eV ==== 
     psi = 0.911*[#   1]+0.024*[#  13]+0.023*[#  14]+0.015*[#  12]+0.011*[#  11]+
          +0.008*[#  15]+0.004*[#   3]+0.001*[#  31]+
    |psi|^2 = 1.000
==== e(   3) =   -41.99273 eV ==== 
     psi = 0.798*[#   5]+0.183*[#   8]+0.004*[#  15]+0.003*[#  16]+0.002*[#  11]+
          +0.002*[#   6]+0.002*[#   9]+0.001*[#  29]+
    |psi|^2 = 0.998
==== e(   4) =   -41.50763 eV ==== 
     psi = 0.538*[#   6]+0.442*[#   9]+0.004*[#  16]+0.003*[#  14]+0.003*[#   5]+
          +0.003*[#  11]+0.002*[#  10]+0.001*[#   4]+
    |psi|^2 = 0.999
==== e(   5) =   -40.82786 eV ==== 
     psi = 0.982*[#  10]+0.004*[#  16]+0.003*[#  15]+0.002*[#  11]+0.002*[#  12]+
          +0.001*[#  34]+0.001*[#   6]+
    |psi|^2 = 0.999
==== e(   6) =   -38.08196 eV ==== 
     psi = 0.538*[#   9]+0.442*[#   6]+0.003*[#   8]+0.003*[#  13]+0.003*[#  11]+
          +0.002*[#  14]+
    |psi|^2 = 0.998
==== e(   7) =   -37.60998 eV ==== 
     psi = 0.794*[#   8]+0.182*[#   5]+0.005*[#   7]+0.005*[#  12]+0.004*[#  13]+
          +0.002*[#   6]+0.002*[#   9]+0.001*[#   3]+0.001*[#  15]+
    |psi|^2 = 0.998
==== e(   8) =   -37.22174 eV ==== 
     psi = 0.979*[#   7]+0.004*[#   8]+0.004*[#  14]+0.003*[#  13]+0.002*[#  11]+
          +0.002*[#  12]+0.002*[#  31]+0.001*[#   5]+
    |psi|^2 = 0.998
==== e(   9) =    -5.79359 eV ==== 
     psi = 0.653*[#  28]+0.076*[#  16]+0.072*[#  15]+0.069*[#   4]+0.050*[#  11]+
          +0.036*[#  12]+0.025*[#  14]+0.012*[#   2]+0.001*[#   9]+0.002*[#  10]+
    |psi|^2 = 1.000
==== e(  10) =    -5.17911 eV ==== 
     psi = 0.651*[#  27]+0.076*[#  13]+0.073*[#  14]+0.069*[#   3]+0.050*[#  12]+
          +0.036*[#  11]+0.025*[#  15]+0.013*[#   1]+0.002*[#   7]+0.002*[#   8]+
          +0.001*[#   6]+
    |psi|^2 = 1.000
==== e(  11) =     6.88150 eV ==== 
     psi = 0.164*[#  34]+0.162*[#  33]+0.125*[#   4]+0.110*[#  29]+0.082*[#  30]+
          +0.057*[#  25]+0.055*[#  32]+0.048*[#  28]+0.044*[#  18]+0.037*[#  26]+
          +0.031*[#  17]+0.029*[#  23]+0.015*[#  20]+0.007*[#  22]+0.006*[#  15]+
          +0.005*[#  24]+0.005*[#   2]+0.005*[#  16]+0.004*[#  19]+0.003*[#  11]+
          +0.003*[#  12]+0.002*[#  14]+
    |psi|^2 = 0.999
==== e(  12) =     7.76837 eV ==== 
     psi = 0.191*[#  31]+0.180*[#  32]+0.141*[#   3]+0.129*[#  30]+0.090*[#  29]+
          +0.065*[#  33]+0.055*[#  27]+0.031*[#  22]+0.025*[#  19]+0.019*[#  21]+
          +0.015*[#  20]+0.015*[#  24]+0.008*[#  17]+0.007*[#  14]+0.006*[#   1]+
          +0.005*[#  13]+0.004*[#  25]+0.003*[#  11]+0.003*[#  12]+0.002*[#  23]+
          +0.002*[#  15]+0.001*[#  18]+
    |psi|^2 = 0.997
==== e(  13) =     7.95682 eV ==== 
     psi = 0.213*[#  24]+0.158*[#  33]+0.149*[#  19]+0.124*[#  34]+0.081*[#  30]+
          +0.078*[#  29]+0.064*[#  26]+0.060*[#  17]+0.037*[#  32]+0.015*[#  22]+
          +0.007*[#  25]+0.006*[#  18]+0.004*[#  23]+0.002*[#  20]+
    |psi|^2 = 0.999
==== e(  14) =     8.22655 eV ==== 
     psi = 0.217*[#  34]+0.157*[#  26]+0.155*[#  29]+0.134*[#  17]+0.078*[#  32]+
          +0.048*[#  24]+0.036*[#  25]+0.034*[#  19]+0.031*[#  22]+0.029*[#  18]+
          +0.022*[#  33]+0.019*[#  23]+0.011*[#  30]+0.009*[#  20]+0.007*[#  16]+
          +0.005*[#  11]+0.002*[#  14]+0.002*[#   4]+
    |psi|^2 = 0.999
==== e(  15) =     9.43130 eV ==== 
     psi = 0.233*[#  32]+0.170*[#  31]+0.122*[#  30]+0.120*[#  29]+0.113*[#  23]+
          +0.089*[#  18]+0.060*[#  33]+0.039*[#  21]+0.032*[#  20]+0.007*[#  25]+
          +0.004*[#  22]+0.003*[#  19]+0.002*[#  24]+0.001*[#  17]+
    |psi|^2 = 0.996
==== e(  16) =     9.59911 eV ==== 
     psi = 0.336*[#  31]+0.219*[#  30]+0.106*[#  33]+0.077*[#  21]+0.070*[#  20]+
          +0.040*[#  32]+0.022*[#  23]+0.021*[#  29]+0.019*[#  18]+0.019*[#  22]+
          +0.015*[#  19]+0.013*[#  25]+0.010*[#  13]+0.010*[#  24]+0.007*[#  12]+
          +0.006*[#  17]+0.003*[#  15]+
    |psi|^2 = 0.996
==== e(  17) =    10.37425 eV ==== 
     psi = 0.221*[#  26]+0.213*[#  17]+0.194*[#  25]+0.138*[#  18]+0.093*[#  23]+
          +0.051*[#  22]+0.050*[#  20]+0.019*[#  24]+0.014*[#  19]+0.002*[#  33]+
          +0.001*[#  34]+
    |psi|^2 = 0.999
==== e(  18) =    10.49809 eV ==== 
     psi = 0.209*[#  18]+0.192*[#  25]+0.175*[#  26]+0.142*[#  23]+0.131*[#  17]+
          +0.048*[#  20]+0.030*[#  22]+0.029*[#  24]+0.021*[#  19]+0.007*[#  34]+
          +0.005*[#  29]+0.003*[#  32]+0.003*[#  28]+0.002*[#   4]+0.001*[#  16]+
          +0.001*[#  11]+
    |psi|^2 = 0.999
==== e(  19) =    10.93994 eV ==== 
     psi = 0.279*[#  25]+0.154*[#  18]+0.101*[#  23]+0.093*[#  26]+0.076*[#  20]+
          +0.062*[#  34]+0.060*[#  17]+0.034*[#  29]+0.031*[#  33]+0.027*[#   4]+
          +0.019*[#  32]+0.019*[#  28]+0.014*[#  30]+0.013*[#  22]+0.004*[#  15]+
          +0.004*[#  16]+0.002*[#  11]+0.002*[#  12]+0.001*[#   2]+0.001*[#  14]+
    |psi|^2 = 0.998
==== e(  20) =    12.36507 eV ==== 
     psi = 0.206*[#  34]+0.182*[#  26]+0.137*[#  17]+0.133*[#  29]+0.071*[#  32]+
          +0.056*[#  24]+0.052*[#  19]+0.041*[#  33]+0.024*[#  22]+0.020*[#  25]+
          +0.018*[#  30]+0.015*[#  18]+0.010*[#  23]+0.007*[#  28]+0.007*[#  20]+
          +0.006*[#  16]+0.004*[#  11]+0.004*[#   4]+0.002*[#  14]+
    |psi|^2 = 0.996
==== e(  21) =    13.00854 eV ==== 
     psi = 0.199*[#  19]+0.176*[#  33]+0.156*[#  24]+0.125*[#  34]+0.082*[#  29]+
          +0.076*[#  30]+0.066*[#  26]+0.049*[#  17]+0.047*[#  32]+0.010*[#  22]+
          +0.003*[#  25]+0.002*[#  18]+0.001*[#  23]+
    |psi|^2 = 0.995
==== e(  22) =    13.39964 eV ==== 
     psi = 0.226*[#  20]+0.213*[#  21]+0.180*[#  22]+0.122*[#  19]+0.119*[#  24]+
          +0.064*[#  25]+0.041*[#  17]+0.010*[#  23]+0.006*[#  18]+0.004*[#  30]+
          +0.002*[#  29]+0.002*[#  32]+0.002*[#  33]+
    |psi|^2 = 0.995
==== e(  23) =    13.46665 eV ==== 
     psi = 0.228*[#  21]+0.163*[#  20]+0.149*[#  19]+0.139*[#  24]+0.126*[#  22]+
          +0.045*[#  25]+0.034*[#  31]+0.029*[#  17]+0.024*[#  30]+0.010*[#  23]+
          +0.010*[#  27]+0.007*[#  33]+0.006*[#  18]+0.006*[#  13]+0.005*[#   3]+
          +0.004*[#  12]+0.003*[#  32]+0.002*[#  15]+0.002*[#  29]+0.001*[#  14]+
    |psi|^2 = 0.994
==== e(  24) =    13.73940 eV ==== 
     psi = 0.435*[#  22]+0.194*[#  19]+0.175*[#  24]+0.090*[#  17]+0.022*[#  21]+
          +0.015*[#  31]+0.010*[#  32]+0.009*[#  29]+0.009*[#  30]+0.007*[#  20]+
          +0.006*[#  27]+0.004*[#  23]+0.003*[#   3]+0.003*[#  14]+0.003*[#  13]+
          +0.003*[#  18]+0.002*[#  25]+0.002*[#  33]+0.001*[#  11]+0.001*[#  12]+
    |psi|^2 = 0.996
==== e(  25) =    15.00892 eV ==== 
     psi = 0.291*[#  21]+0.200*[#  20]+0.109*[#  23]+0.093*[#  31]+0.069*[#  18]+
          +0.063*[#  30]+0.053*[#  25]+0.031*[#  33]+0.016*[#  32]+0.013*[#  22]+
          +0.012*[#  27]+0.009*[#  19]+0.008*[#  29]+0.008*[#   3]+0.006*[#  24]+
          +0.005*[#  13]+0.003*[#  12]+0.003*[#  17]+0.002*[#  15]+
    |psi|^2 = 0.997
==== e(  26) =    15.65887 eV ==== 
     psi = 0.324*[#  23]+0.205*[#  18]+0.096*[#  21]+0.093*[#  32]+0.069*[#  31]+
          +0.068*[#  20]+0.048*[#  30]+0.047*[#  29]+0.023*[#  33]+0.018*[#  25]+
          +0.001*[#  22]+0.001*[#  14]+
    |psi|^2 = 0.997
==== e(  27) =    17.70221 eV ==== 
     psi = 0.248*[#  28]+0.157*[#   4]+0.099*[#  16]+0.089*[#  15]+0.068*[#  33]+
          +0.065*[#  11]+0.062*[#  34]+0.044*[#  12]+0.040*[#  29]+0.033*[#  30]+
          +0.033*[#  14]+0.021*[#  32]+0.017*[#   2]+0.002*[#  26]+0.002*[#   9]+
          +0.002*[#  10]+0.001*[#  17]+0.001*[#   5]+
    |psi|^2 = 0.986
==== e(  28) =    18.51284 eV ==== 
     psi = 0.244*[#  27]+0.146*[#   3]+0.098*[#  13]+0.091*[#  14]+0.069*[#  32]+
          +0.065*[#  12]+0.061*[#  31]+0.045*[#  11]+0.040*[#  30]+0.034*[#  29]+
          +0.032*[#  15]+0.020*[#  33]+0.018*[#   1]+0.006*[#  21]+0.004*[#  20]+
          +0.002*[#  23]+0.002*[#   7]+0.002*[#   8]+0.001*[#  18]+0.001*[#   6]+
          +0.001*[#  22]+0.001*[#  25]+
    |psi|^2 = 0.986
==== e(  29) =    24.75905 eV ==== 
     psi = 0.335*[#   4]+0.112*[#  16]+0.076*[#  11]+0.037*[#  14]+0.025*[#   2]+
          +0.014*[#  34]+0.011*[#  15]+0.009*[#  29]+0.006*[#  12]+0.006*[#  33]+
          +0.005*[#  32]+0.004*[#  28]+0.003*[#  30]+0.001*[#  10]+
    |psi|^2 = 0.649
==== e(  30) =    25.69081 eV ==== 
     psi = 0.335*[#   3]+0.106*[#  13]+0.073*[#  12]+0.035*[#  15]+0.023*[#   1]+
          +0.012*[#  31]+0.010*[#  14]+0.008*[#  30]+0.006*[#  11]+0.005*[#  32]+
          +0.004*[#  33]+0.004*[#  21]+0.004*[#  22]+0.003*[#  20]+0.003*[#  19]+
          +0.003*[#  27]+0.003*[#  29]+0.002*[#  24]+0.001*[#   7]+
    |psi|^2 = 0.643

 k =  -0.0723898293  0.1013457610  0.1013457610
==== e(   1) =   -75.57661 eV ==== 
     psi = 0.956*[#   2]+0.009*[#  16]+0.009*[#  15]+0.006*[#  11]+0.005*[#   4]+
          +0.004*[#  12]+0.003*[#  14]+0.002*[#  34]+0.002*[#  33]+0.002*[#  29]+
    |psi|^2 = 1.000
==== e(   2) =   -71.83877 eV ==== 
     psi = 0.956*[#   1]+0.009*[#  13]+0.009*[#  14]+0.006*[#  12]+0.004*[#   3]+
          +0.004*[#  11]+0.003*[#  15]+0.002*[#  31]+0.002*[#  32]+0.002*[#  30]+
    |psi|^2 = 1.000
==== e(   3) =   -41.99970 eV ==== 
     psi = 0.797*[#   5]+0.183*[#   8]+0.005*[#  15]+0.004*[#  16]+0.003*[#   6]+
          +0.003*[#   9]+0.001*[#  12]+
    |psi|^2 = 0.998
==== e(   4) =   -41.51955 eV ==== 
     psi = 0.536*[#   6]+0.441*[#   9]+0.005*[#   5]+0.004*[#  16]+0.003*[#  14]+
          +0.003*[#  11]+0.003*[#  10]+
    |psi|^2 = 0.998
==== e(   5) =   -40.83373 eV ==== 
     psi = 0.983*[#  10]+0.004*[#  15]+0.003*[#  11]+0.002*[#  12]+0.002*[#   6]+
          +0.001*[#   9]+0.001*[#  14]+0.001*[#  16]+
    |psi|^2 = 0.998
==== e(   6) =   -38.09142 eV ==== 
     psi = 0.537*[#   9]+0.442*[#   6]+0.005*[#   8]+0.005*[#  13]+0.003*[#  11]+
          +0.003*[#  14]+0.001*[#   7]+
    |psi|^2 = 0.998
==== e(   7) =   -37.62388 eV ==== 
     psi = 0.790*[#   8]+0.181*[#   5]+0.008*[#   7]+0.005*[#  12]+0.004*[#  13]+
          +0.003*[#   6]+0.003*[#   9]+0.001*[#  15]+
    |psi|^2 = 0.998
==== e(   8) =   -37.22871 eV ==== 
     psi = 0.977*[#   7]+0.008*[#   8]+0.004*[#  14]+0.002*[#  12]+0.002*[#   5]+
          +0.002*[#  11]+0.001*[#  15]+
    |psi|^2 = 0.998
==== e(   9) =    -5.35985 eV ==== 
     psi = 0.740*[#  28]+0.072*[#  16]+0.059*[#  15]+0.048*[#  11]+0.029*[#  12]+
          +0.024*[#  14]+0.015*[#   4]+0.004*[#   2]+0.002*[#  10]+0.002*[#   9]+
          +0.001*[#   5]+
    |psi|^2 = 1.000
==== e(  10) =    -4.74189 eV ==== 
     psi = 0.738*[#  27]+0.072*[#  13]+0.059*[#  14]+0.048*[#  12]+0.029*[#  11]+
          +0.024*[#  15]+0.014*[#   3]+0.004*[#   1]+0.003*[#   7]+0.002*[#   8]+
          +0.002*[#   6]+
    |psi|^2 = 1.000
==== e(  11) =     5.74661 eV ==== 
     psi = 0.180*[#  34]+0.172*[#   4]+0.143*[#  33]+0.121*[#  29]+0.072*[#  30]+
          +0.060*[#  32]+0.056*[#  25]+0.042*[#  18]+0.033*[#  26]+0.028*[#  23]+
          +0.027*[#  17]+0.018*[#  28]+0.014*[#  20]+0.007*[#  15]+0.007*[#  22]+
          +0.005*[#   2]+0.005*[#  16]+0.003*[#  11]+0.003*[#  12]+0.002*[#  14]+
    |psi|^2 = 1.000
==== e(  12) =     6.58681 eV ==== 
     psi = 0.200*[#  31]+0.186*[#   3]+0.155*[#  32]+0.134*[#  30]+0.078*[#  29]+
          +0.067*[#  33]+0.035*[#  22]+0.027*[#  19]+0.021*[#  21]+0.020*[#  27]+
          +0.017*[#  24]+0.017*[#  20]+0.009*[#  17]+0.008*[#  14]+0.006*[#   1]+
          +0.006*[#  13]+0.004*[#  25]+0.004*[#  11]+0.004*[#  12]+0.002*[#  15]+
    |psi|^2 = 0.999
==== e(  13) =     7.49670 eV ==== 
     psi = 0.204*[#  24]+0.161*[#  33]+0.143*[#  19]+0.133*[#  34]+0.081*[#  30]+
          +0.073*[#  29]+0.064*[#  17]+0.063*[#  26]+0.036*[#  32]+0.015*[#  22]+
          +0.009*[#  25]+0.009*[#  18]+0.006*[#  23]+0.002*[#  20]+
    |psi|^2 = 0.999
==== e(  14) =     7.59786 eV ==== 
     psi = 0.200*[#  34]+0.168*[#  26]+0.154*[#  29]+0.133*[#  17]+0.077*[#  32]+
          +0.060*[#  24]+0.042*[#  19]+0.040*[#  33]+0.032*[#  22]+0.026*[#  25]+
          +0.020*[#  30]+0.019*[#  18]+0.012*[#  23]+0.007*[#  20]+0.005*[#  16]+
          +0.003*[#  11]+0.002*[#  14]+
    |psi|^2 = 0.999
==== e(  15) =     8.96706 eV ==== 
     psi = 0.225*[#  32]+0.162*[#  31]+0.123*[#  23]+0.118*[#  30]+0.115*[#  29]+
          +0.091*[#  18]+0.058*[#  33]+0.044*[#  21]+0.035*[#  20]+0.008*[#  25]+
          +0.007*[#  22]+0.005*[#  19]+0.003*[#  24]+0.002*[#  17]+
    |psi|^2 = 0.996
==== e(  16) =     9.01146 eV ==== 
     psi = 0.304*[#  31]+0.197*[#  30]+0.096*[#  33]+0.095*[#  21]+0.083*[#  20]+
          +0.058*[#  32]+0.033*[#  23]+0.030*[#  29]+0.025*[#  18]+0.019*[#  25]+
          +0.016*[#  22]+0.013*[#  19]+0.008*[#  24]+0.007*[#  13]+0.005*[#  12]+
          +0.004*[#  17]+0.002*[#  15]+
    |psi|^2 = 0.996
==== e(  17) =    10.65649 eV ==== 
     psi = 0.225*[#  26]+0.204*[#  17]+0.188*[#  25]+0.140*[#  18]+0.093*[#  23]+
          +0.049*[#  20]+0.048*[#  22]+0.026*[#  24]+0.020*[#  19]+0.002*[#  33]+
          +0.001*[#  34]+
    |psi|^2 = 1.000
==== e(  18) =    10.72028 eV ==== 
     psi = 0.231*[#  25]+0.230*[#  18]+0.154*[#  23]+0.141*[#  26]+0.114*[#  17]+
          +0.059*[#  20]+0.026*[#  22]+0.018*[#  24]+0.013*[#  19]+0.004*[#  34]+
          +0.003*[#  29]+0.002*[#  32]+0.001*[#  28]+
    |psi|^2 = 1.000
==== e(  19) =    11.25333 eV ==== 
     psi = 0.265*[#  25]+0.149*[#  18]+0.113*[#  26]+0.096*[#  23]+0.080*[#  17]+
          +0.073*[#  20]+0.059*[#  34]+0.036*[#  33]+0.033*[#  29]+0.032*[#   4]+
          +0.018*[#  32]+0.017*[#  22]+0.016*[#  30]+0.006*[#  28]+0.002*[#  15]+
          +0.002*[#  16]+0.001*[#  11]+
    |psi|^2 = 0.999
==== e(  20) =    13.15739 eV ==== 
     psi = 0.203*[#  34]+0.184*[#  26]+0.149*[#  17]+0.128*[#  29]+0.070*[#  32]+
          +0.065*[#  19]+0.054*[#  24]+0.048*[#  33]+0.021*[#  30]+0.020*[#  22]+
          +0.011*[#  25]+0.009*[#  18]+0.006*[#  23]+0.006*[#  28]+0.006*[#  16]+
          +0.005*[#  20]+0.004*[#  11]+0.002*[#  14]+
    |psi|^2 = 0.995
==== e(  21) =    13.55785 eV ==== 
     psi = 0.250*[#  19]+0.171*[#  33]+0.119*[#  34]+0.114*[#  24]+0.080*[#  29]+
          +0.069*[#  30]+0.068*[#  26]+0.052*[#  17]+0.049*[#  32]+0.009*[#  22]+
          +0.003*[#  21]+0.003*[#  18]+0.003*[#  25]+0.002*[#  20]+0.001*[#  23]+
    |psi|^2 = 0.994
==== e(  22) =    13.77991 eV ==== 
     psi = 0.229*[#  21]+0.222*[#  20]+0.183*[#  22]+0.121*[#  24]+0.093*[#  19]+
          +0.064*[#  25]+0.042*[#  17]+0.016*[#  23]+0.009*[#  18]+0.004*[#  30]+
          +0.004*[#  29]+0.003*[#  33]+0.002*[#  31]+0.002*[#  32]+
    |psi|^2 = 0.998
==== e(  23) =    13.83916 eV ==== 
     psi = 0.213*[#  24]+0.175*[#  21]+0.168*[#  22]+0.165*[#  19]+0.132*[#  20]+
          +0.038*[#  25]+0.030*[#  17]+0.020*[#  30]+0.017*[#  31]+0.009*[#  23]+
          +0.005*[#  18]+0.004*[#  33]+0.004*[#  34]+0.004*[#  27]+0.003*[#  13]+
          +0.002*[#   3]+0.002*[#  12]+0.002*[#  32]+0.001*[#  15]+0.001*[#  29]+
    |psi|^2 = 0.997
==== e(  24) =    14.08533 eV ==== 
     psi = 0.401*[#  22]+0.153*[#  19]+0.150*[#  24]+0.081*[#  17]+0.056*[#  21]+
          +0.034*[#  31]+0.032*[#  20]+0.022*[#  30]+0.019*[#  32]+0.018*[#  29]+
          +0.008*[#  25]+0.008*[#   3]+0.005*[#  33]+0.003*[#  27]+0.002*[#  13]+
          +0.001*[#  14]+
    |psi|^2 = 0.998
==== e(  25) =    15.85693 eV ==== 
     psi = 0.273*[#  21]+0.194*[#  20]+0.115*[#  31]+0.105*[#  23]+0.077*[#  30]+
          +0.067*[#  18]+0.051*[#  25]+0.038*[#  33]+0.023*[#  32]+0.012*[#  29]+
          +0.009*[#  27]+0.008*[#  22]+0.006*[#  13]+0.005*[#  19]+0.004*[#  12]+
          +0.004*[#  24]+0.002*[#  15]+0.002*[#   3]+0.002*[#  17]+
    |psi|^2 = 0.998
==== e(  26) =    16.27757 eV ==== 
     psi = 0.312*[#  23]+0.198*[#  18]+0.101*[#  32]+0.093*[#  21]+0.075*[#  31]+
          +0.066*[#  20]+0.053*[#  30]+0.052*[#  29]+0.026*[#  33]+0.017*[#  25]+
          +0.002*[#  22]+0.001*[#  19]+
    |psi|^2 = 0.998
==== e(  27) =    19.03663 eV ==== 
     psi = 0.205*[#  28]+0.180*[#  16]+0.132*[#  15]+0.122*[#  11]+0.067*[#  12]+
          +0.060*[#  14]+0.043*[#   4]+0.038*[#  33]+0.032*[#  34]+0.021*[#  29]+
          +0.018*[#  30]+0.011*[#  32]+0.010*[#   2]+0.002*[#  10]+0.002*[#   9]+
          +0.001*[#   5]+0.001*[#  26]+
    |psi|^2 = 0.948
==== e(  28) =    19.72952 eV ==== 
     psi = 0.203*[#  27]+0.179*[#  13]+0.133*[#  14]+0.121*[#  12]+0.067*[#  11]+
          +0.059*[#  15]+0.038*[#  32]+0.034*[#   3]+0.031*[#  31]+0.020*[#  30]+
          +0.019*[#  29]+0.011*[#   1]+0.010*[#  33]+0.004*[#  21]+0.003*[#  20]+
          +0.002*[#   7]+0.002*[#   8]+0.002*[#   6]+0.001*[#  23]+0.001*[#   5]+
    |psi|^2 = 0.944
==== e(  29) =    23.21590 eV ==== 
     psi = 0.625*[#   4]+0.049*[#  34]+0.045*[#  16]+0.032*[#  29]+0.032*[#  11]+
          +0.029*[#  33]+0.017*[#   2]+0.016*[#  32]+0.015*[#  14]+0.014*[#  30]+
          +0.004*[#  15]+0.003*[#  12]+0.001*[#  28]+
    |psi|^2 = 0.885
==== e(  30) =    24.20490 eV ==== 
     psi = 0.632*[#   3]+0.046*[#  31]+0.040*[#  13]+0.030*[#  30]+0.029*[#  12]+
          +0.028*[#  32]+0.016*[#   1]+0.015*[#  33]+0.014*[#  29]+0.013*[#  15]+
          +0.003*[#  14]+0.003*[#  22]+0.002*[#  21]+0.002*[#  11]+0.002*[#  19]+
          +0.002*[#  20]+0.001*[#  24]+
    |psi|^2 = 0.880

 k =   0.1303016927 -0.1013457610 -0.1013457610
==== e(   1) =   -75.58279 eV ==== 
     psi = 0.983*[#   2]+0.003*[#   4]+0.003*[#  34]+0.002*[#  29]+0.002*[#  33]+
          +0.001*[#  16]+0.001*[#  30]+0.001*[#  32]+
    |psi|^2 = 1.000
==== e(   2) =   -71.84448 eV ==== 
     psi = 0.984*[#   1]+0.003*[#  31]+0.003*[#   3]+0.002*[#  30]+0.002*[#  32]+
          +0.001*[#  13]+0.001*[#  29]+0.001*[#  33]+
    |psi|^2 = 1.000
==== e(   3) =   -42.03183 eV ==== 
     psi = 0.796*[#   5]+0.183*[#   8]+0.006*[#  16]+0.004*[#  15]+0.003*[#   6]+
          +0.003*[#   9]+0.001*[#  10]+
    |psi|^2 = 0.999
==== e(   4) =   -41.54495 eV ==== 
     psi = 0.536*[#   6]+0.441*[#   9]+0.006*[#   5]+0.004*[#  16]+0.003*[#  14]+
          +0.003*[#  10]+0.003*[#  11]+0.001*[#   8]+
    |psi|^2 = 0.999
==== e(   5) =   -40.86378 eV ==== 
     psi = 0.983*[#  10]+0.003*[#  11]+0.003*[#  15]+0.002*[#   6]+0.002*[#  12]+
          +0.002*[#  14]+0.001*[#   9]+
    |psi|^2 = 0.999
==== e(   6) =   -38.12182 eV ==== 
     psi = 0.536*[#   9]+0.440*[#   6]+0.006*[#   8]+0.006*[#  13]+0.003*[#  11]+
          +0.002*[#   7]+0.002*[#  14]+0.001*[#   5]+
    |psi|^2 = 0.998
==== e(   7) =   -37.64746 eV ==== 
     psi = 0.788*[#   8]+0.181*[#   5]+0.009*[#   7]+0.005*[#  12]+0.004*[#   6]+
          +0.004*[#   9]+0.004*[#  13]+0.001*[#  15]+
    |psi|^2 = 0.998
==== e(   8) =   -37.25610 eV ==== 
     psi = 0.975*[#   7]+0.009*[#   8]+0.003*[#  14]+0.003*[#  12]+0.002*[#   5]+
          +0.002*[#  11]+0.002*[#  15]+
    |psi|^2 = 0.998
==== e(   9) =    -5.22572 eV ==== 
     psi = 0.775*[#  28]+0.071*[#  16]+0.048*[#  11]+0.047*[#  15]+0.024*[#  12]+
          +0.024*[#  14]+0.003*[#  10]+0.002*[#   5]+0.002*[#   9]+0.001*[#  26]+
    |psi|^2 = 1.000
==== e(  10) =    -4.60657 eV ==== 
     psi = 0.772*[#  27]+0.072*[#  13]+0.048*[#  12]+0.048*[#  14]+0.024*[#  11]+
          +0.024*[#  15]+0.003*[#   7]+0.002*[#   6]+0.002*[#   8]+
    |psi|^2 = 0.999
==== e(  11) =     5.41774 eV ==== 
     psi = 0.196*[#  34]+0.193*[#   4]+0.132*[#  29]+0.128*[#  33]+0.065*[#  32]+
          +0.064*[#  30]+0.054*[#  25]+0.041*[#  18]+0.033*[#  26]+0.027*[#  17]+
          +0.027*[#  23]+0.014*[#  20]+0.007*[#  22]+0.005*[#  16]+0.005*[#   2]+
          +0.003*[#  11]+0.002*[#  14]+
    |psi|^2 = 1.000
==== e(  12) =     6.24526 eV ==== 
     psi = 0.214*[#  31]+0.208*[#   3]+0.144*[#  30]+0.140*[#  32]+0.071*[#  33]+
          +0.070*[#  29]+0.036*[#  22]+0.027*[#  19]+0.022*[#  21]+0.018*[#  20]+
          +0.018*[#  24]+0.009*[#  17]+0.006*[#  13]+0.005*[#   1]+0.004*[#  25]+
          +0.004*[#  12]+0.002*[#  15]+
    |psi|^2 = 0.999
==== e(  13) =     7.37759 eV ==== 
     psi = 0.228*[#  34]+0.149*[#  17]+0.148*[#  26]+0.117*[#  29]+0.065*[#  24]+
          +0.058*[#  32]+0.058*[#  33]+0.045*[#  19]+0.036*[#  22]+0.029*[#  30]+
          +0.020*[#  18]+0.020*[#  25]+0.013*[#  23]+0.005*[#  20]+0.003*[#  16]+
          +0.002*[#  11]+0.001*[#  14]+
    |psi|^2 = 0.999
==== e(  14) =     7.42183 eV ==== 
     psi = 0.194*[#  24]+0.161*[#  33]+0.136*[#  19]+0.102*[#  29]+0.094*[#  34]+
          +0.084*[#  26]+0.081*[#  30]+0.051*[#  32]+0.049*[#  17]+0.016*[#  25]+
          +0.012*[#  22]+0.008*[#  18]+0.005*[#  23]+0.004*[#  20]+
    |psi|^2 = 0.999
==== e(  15) =     8.80925 eV ==== 
     psi = 0.276*[#  31]+0.188*[#  30]+0.101*[#  21]+0.092*[#  33]+0.085*[#  20]+
          +0.078*[#  32]+0.040*[#  29]+0.039*[#  23]+0.029*[#  18]+0.019*[#  25]+
          +0.015*[#  22]+0.012*[#  19]+0.008*[#  24]+0.004*[#  13]+0.004*[#  17]+
          +0.003*[#  12]+0.001*[#  15]+
    |psi|^2 = 0.996
==== e(  16) =     8.87239 eV ==== 
     psi = 0.223*[#  32]+0.171*[#  31]+0.117*[#  23]+0.114*[#  29]+0.113*[#  30]+
          +0.086*[#  18]+0.056*[#  33]+0.044*[#  21]+0.038*[#  20]+0.009*[#  22]+
          +0.009*[#  25]+0.007*[#  19]+0.004*[#  24]+0.002*[#  17]+0.001*[#  14]+
    |psi|^2 = 0.996
==== e(  17) =    10.74405 eV ==== 
     psi = 0.267*[#  18]+0.264*[#  25]+0.178*[#  23]+0.100*[#  26]+0.075*[#  17]+
          +0.068*[#  20]+0.017*[#  22]+0.012*[#  24]+0.009*[#  19]+0.002*[#  29]+
          +0.002*[#  32]+0.002*[#  33]+0.002*[#  34]+
    |psi|^2 = 1.000
==== e(  18) =    10.78944 eV ==== 
     psi = 0.226*[#  26]+0.209*[#  17]+0.191*[#  25]+0.124*[#  18]+0.082*[#  23]+
          +0.050*[#  20]+0.049*[#  22]+0.036*[#  24]+0.027*[#  19]+0.002*[#  33]+
          +0.002*[#  34]+
    |psi|^2 = 1.000
==== e(  19) =    11.35995 eV ==== 
     psi = 0.232*[#  25]+0.148*[#  26]+0.132*[#  18]+0.111*[#  17]+0.084*[#  23]+
          +0.064*[#  20]+0.062*[#  34]+0.038*[#  33]+0.035*[#   4]+0.034*[#  29]+
          +0.023*[#  22]+0.018*[#  32]+0.018*[#  30]+
    |psi|^2 = 0.999
==== e(  20) =    13.50376 eV ==== 
     psi = 0.224*[#  34]+0.150*[#  17]+0.148*[#  26]+0.107*[#  19]+0.086*[#  29]+
          +0.081*[#  33]+0.065*[#  24]+0.047*[#  32]+0.034*[#  30]+0.014*[#  22]+
          +0.007*[#  18]+0.007*[#  28]+0.005*[#  23]+0.005*[#  25]+0.003*[#  16]+
          +0.003*[#  11]+0.003*[#  20]+0.001*[#  14]+0.001*[#  15]+
    |psi|^2 = 0.993
==== e(  21) =    13.54337 eV ==== 
     psi = 0.199*[#  19]+0.145*[#  33]+0.116*[#  29]+0.111*[#  24]+0.108*[#  26]+
          +0.089*[#  34]+0.072*[#  32]+0.068*[#  17]+0.061*[#  30]+0.006*[#  25]+
          +0.005*[#  22]+0.004*[#  20]+0.003*[#  18]+0.002*[#  23]+0.002*[#  16]+
          +0.002*[#  21]+
    |psi|^2 = 0.994
==== e(  22) =    13.89365 eV ==== 
     psi = 0.276*[#  24]+0.275*[#  22]+0.219*[#  19]+0.069*[#  21]+0.052*[#  20]+
          +0.043*[#  17]+0.016*[#  25]+0.014*[#  30]+0.008*[#  23]+0.006*[#  29]+
          +0.005*[#  34]+0.004*[#  18]+0.004*[#  31]+0.002*[#  32]+0.001*[#  27]+
    |psi|^2 = 0.998
==== e(  23) =    13.96369 eV ==== 
     psi = 0.220*[#  21]+0.215*[#  22]+0.208*[#  20]+0.110*[#  24]+0.097*[#  19]+
          +0.061*[#  25]+0.039*[#  17]+0.019*[#  23]+0.012*[#  18]+0.005*[#  29]+
          +0.004*[#  30]+0.003*[#  31]+0.003*[#  33]+0.002*[#  32]+0.001*[#  34]+
    |psi|^2 = 0.999
==== e(  24) =    14.20863 eV ==== 
     psi = 0.274*[#  22]+0.171*[#  21]+0.126*[#  20]+0.104*[#  19]+0.092*[#  24]+
          +0.058*[#  17]+0.050*[#  31]+0.033*[#  25]+0.028*[#  30]+0.023*[#  32]+
          +0.018*[#  29]+0.011*[#   3]+0.009*[#  33]+
    |psi|^2 = 0.999
==== e(  25) =    16.23908 eV ==== 
     psi = 0.253*[#  21]+0.190*[#  20]+0.128*[#  31]+0.114*[#  23]+0.072*[#  18]+
          +0.066*[#  30]+0.050*[#  25]+0.036*[#  32]+0.033*[#  33]+0.018*[#  29]+
          +0.011*[#  27]+0.005*[#  22]+0.005*[#  13]+0.004*[#  19]+0.003*[#  12]+
          +0.003*[#  24]+0.002*[#  14]+0.002*[#  15]+
    |psi|^2 = 0.997
==== e(  26) =    16.28047 eV ==== 
     psi = 0.304*[#  23]+0.193*[#  18]+0.109*[#  21]+0.096*[#  32]+0.067*[#  20]+
          +0.063*[#  30]+0.060*[#  31]+0.049*[#  29]+0.031*[#  33]+0.017*[#  25]+
          +0.003*[#  22]+0.001*[#  19]+
    |psi|^2 = 0.998
==== e(  27) =    19.36286 eV ==== 
     psi = 0.230*[#  16]+0.193*[#  28]+0.156*[#  11]+0.152*[#  15]+0.077*[#  12]+
          +0.077*[#  14]+0.011*[#  34]+0.008*[#  29]+0.004*[#  32]+0.002*[#  10]+
          +0.002*[#   4]+0.002*[#   5]+0.002*[#   9]+0.001*[#  26]+
    |psi|^2 = 0.921
==== e(  28) =    19.97508 eV ==== 
     psi = 0.225*[#  13]+0.189*[#  27]+0.153*[#  12]+0.149*[#  14]+0.076*[#  11]+
          +0.075*[#  15]+0.013*[#  31]+0.009*[#  30]+0.004*[#  33]+0.004*[#  21]+
          +0.003*[#   7]+0.003*[#  20]+0.002*[#   6]+0.002*[#   8]+0.001*[#   3]+
          +0.001*[#  22]+0.001*[#  23]+
    |psi|^2 = 0.916
==== e(  29) =    22.73396 eV ==== 
     psi = 0.716*[#   4]+0.073*[#  34]+0.050*[#  33]+0.048*[#  29]+0.025*[#  30]+
          +0.024*[#  32]+0.009*[#   2]+0.006*[#  16]+0.005*[#  15]+0.004*[#  11]+
          +0.002*[#  12]+0.002*[#  14]+
    |psi|^2 = 0.967
==== e(  30) =    23.77954 eV ==== 
     psi = 0.720*[#   3]+0.069*[#  31]+0.047*[#  32]+0.045*[#  30]+0.023*[#  29]+
          +0.023*[#  33]+0.009*[#   1]+0.006*[#  13]+0.004*[#  14]+0.004*[#  12]+
          +0.002*[#  11]+0.002*[#  22]+0.002*[#  15]+0.002*[#  19]+0.001*[#  21]+
          +0.001*[#  24]+
    |psi|^2 = 0.961

 k =   0.1013457610 -0.0723898293 -0.0723898293
==== e(   1) =   -75.57810 eV ==== 
     psi = 0.938*[#   2]+0.019*[#  16]+0.012*[#  11]+0.008*[#  15]+0.006*[#  14]+
          +0.006*[#   4]+0.004*[#  12]+0.002*[#  34]+0.001*[#  29]+0.001*[#  33]+
    |psi|^2 = 1.000
==== e(   2) =   -71.84041 eV ==== 
     psi = 0.938*[#   1]+0.019*[#  13]+0.012*[#  12]+0.008*[#  14]+0.006*[#  15]+
          +0.005*[#   3]+0.004*[#  11]+0.002*[#  31]+0.001*[#  30]+0.001*[#  32]+
    |psi|^2 = 1.000
==== e(   3) =   -42.00050 eV ==== 
     psi = 0.800*[#   5]+0.184*[#   8]+0.006*[#  16]+0.003*[#  15]+
    |psi|^2 = 0.998
==== e(   4) =   -41.51486 eV ==== 
     psi = 0.540*[#   6]+0.444*[#   9]+0.004*[#  16]+0.003*[#  14]+0.002*[#  11]+
          +0.002*[#   5]+0.001*[#  15]+
    |psi|^2 = 0.998
==== e(   5) =   -40.83777 eV ==== 
     psi = 0.984*[#  10]+0.004*[#  11]+0.003*[#  15]+0.002*[#  14]+0.001*[#  12]+
    |psi|^2 = 0.998
==== e(   6) =   -38.09138 eV ==== 
     psi = 0.539*[#   9]+0.443*[#   6]+0.006*[#  13]+0.002*[#  11]+0.002*[#   8]+
          +0.002*[#  14]+
    |psi|^2 = 0.998
==== e(   7) =   -37.61752 eV ==== 
     psi = 0.797*[#   8]+0.183*[#   5]+0.004*[#  12]+0.004*[#  13]+0.003*[#   7]+
          +0.001*[#   6]+0.001*[#   9]+0.001*[#  15]+
    |psi|^2 = 0.998
==== e(   8) =   -37.23306 eV ==== 
     psi = 0.981*[#   7]+0.004*[#  12]+0.003*[#   8]+0.003*[#  14]+0.002*[#  15]+
          +0.001*[#  11]+
    |psi|^2 = 0.998
==== e(   9) =    -5.48445 eV ==== 
     psi = 0.711*[#  28]+0.088*[#  16]+0.058*[#  11]+0.046*[#  15]+0.029*[#  14]+
          +0.029*[#   4]+0.023*[#  12]+0.007*[#   2]+0.003*[#  10]+0.002*[#   5]+
          +0.001*[#   9]+
    |psi|^2 = 1.000
==== e(  10) =    -4.86744 eV ==== 
     psi = 0.709*[#  27]+0.088*[#  13]+0.058*[#  12]+0.046*[#  14]+0.029*[#  15]+
          +0.029*[#   3]+0.023*[#  11]+0.007*[#   1]+0.003*[#   7]+0.002*[#   6]+
          +0.001*[#   8]+
    |psi|^2 = 1.000
==== e(  11) =     6.05539 eV ==== 
     psi = 0.208*[#  34]+0.155*[#   4]+0.139*[#  29]+0.103*[#  33]+0.069*[#  32]+
          +0.052*[#  30]+0.050*[#  25]+0.040*[#  26]+0.039*[#  18]+0.033*[#  17]+
          +0.030*[#  28]+0.026*[#  23]+0.013*[#  20]+0.013*[#  16]+0.008*[#  11]+
          +0.008*[#  22]+0.005*[#   2]+0.004*[#  14]+0.002*[#  24]+0.001*[#  19]+
    |psi|^2 = 0.999
==== e(  12) =     6.90620 eV ==== 
     psi = 0.227*[#  31]+0.170*[#   3]+0.153*[#  30]+0.119*[#  32]+0.076*[#  33]+
          +0.060*[#  29]+0.033*[#  27]+0.031*[#  22]+0.024*[#  19]+0.024*[#  21]+
          +0.019*[#  20]+0.015*[#  24]+0.014*[#  13]+0.009*[#  12]+0.008*[#  17]+
          +0.006*[#   1]+0.005*[#  15]+0.005*[#  25]+
    |psi|^2 = 0.998
==== e(  13) =     7.61016 eV ==== 
     psi = 0.191*[#  34]+0.155*[#  26]+0.140*[#  17]+0.120*[#  29]+0.077*[#  33]+
          +0.064*[#  24]+0.060*[#  32]+0.045*[#  19]+0.039*[#  30]+0.033*[#  22]+
          +0.026*[#  25]+0.022*[#  18]+0.015*[#  23]+0.007*[#  20]+0.002*[#   4]+
    |psi|^2 = 0.999
==== e(  14) =     7.77062 eV ==== 
     psi = 0.186*[#  24]+0.162*[#  33]+0.131*[#  19]+0.114*[#  34]+0.087*[#  29]+
          +0.081*[#  30]+0.075*[#  26]+0.058*[#  17]+0.043*[#  32]+0.018*[#  25]+
          +0.014*[#  22]+0.012*[#  18]+0.008*[#  23]+0.005*[#  20]+0.002*[#  15]+
          +0.001*[#  16]+
    |psi|^2 = 0.999
==== e(  15) =     9.05383 eV ==== 
     psi = 0.265*[#  31]+0.179*[#  30]+0.101*[#  32]+0.097*[#  21]+0.087*[#  33]+
          +0.082*[#  20]+0.052*[#  29]+0.038*[#  23]+0.028*[#  18]+0.018*[#  25]+
          +0.016*[#  22]+0.013*[#  19]+0.008*[#  24]+0.004*[#  17]+0.001*[#  13]+
          +0.001*[#   3]+0.001*[#  14]+
    |psi|^2 = 0.996
==== e(  16) =     9.20398 eV ==== 
     psi = 0.229*[#  32]+0.174*[#  31]+0.118*[#  29]+0.117*[#  30]+0.101*[#  23]+
          +0.078*[#  18]+0.057*[#  33]+0.042*[#  21]+0.036*[#  20]+0.010*[#  22]+
          +0.008*[#  19]+0.008*[#  25]+0.005*[#  24]+0.003*[#  14]+0.003*[#  17]+
          +0.002*[#  13]+0.001*[#  11]+0.002*[#  12]+
    |psi|^2 = 0.996
==== e(  17) =    10.52879 eV ==== 
     psi = 0.292*[#  25]+0.272*[#  18]+0.182*[#  23]+0.075*[#  20]+0.070*[#  26]+
          +0.059*[#  17]+0.014*[#  22]+0.010*[#  24]+0.007*[#  19]+0.004*[#  33]+
          +0.002*[#  32]+0.002*[#  29]+0.002*[#  34]+0.002*[#  28]+0.002*[#  30]+
          +0.001*[#   4]+
    |psi|^2 = 0.999
==== e(  18) =    10.69019 eV ==== 
     psi = 0.224*[#  26]+0.199*[#  17]+0.179*[#  25]+0.124*[#  18]+0.083*[#  23]+
          +0.052*[#  24]+0.046*[#  20]+0.046*[#  22]+0.038*[#  19]+0.002*[#  33]+
          +0.001*[#  34]+
    |psi|^2 = 1.000
==== e(  19) =    11.15857 eV ==== 
     psi = 0.210*[#  25]+0.173*[#  26]+0.132*[#  17]+0.119*[#  18]+0.076*[#  23]+
          +0.057*[#  20]+0.056*[#  34]+0.036*[#  33]+0.029*[#  29]+0.029*[#   4]+
          +0.028*[#  22]+0.017*[#  30]+0.016*[#  32]+0.010*[#  28]+0.004*[#  16]+
          +0.002*[#  11]+0.001*[#  15]+0.001*[#  14]+
    |psi|^2 = 0.999
==== e(  20) =    13.02463 eV ==== 
     psi = 0.193*[#  19]+0.170*[#  33]+0.155*[#  24]+0.126*[#  34]+0.075*[#  30]+
          +0.072*[#  29]+0.067*[#  26]+0.061*[#  17]+0.043*[#  32]+0.008*[#  25]+
          +0.007*[#  18]+0.005*[#  22]+0.004*[#  23]+0.003*[#  15]+0.003*[#  20]+
          +0.002*[#  16]+0.002*[#  11]+0.002*[#  12]+
    |psi|^2 = 0.996
==== e(  21) =    13.31677 eV ==== 
     psi = 0.191*[#  26]+0.185*[#  34]+0.151*[#  17]+0.130*[#  29]+0.072*[#  32]+
          +0.068*[#  19]+0.066*[#  33]+0.048*[#  24]+0.029*[#  30]+0.019*[#  22]+
          +0.008*[#  28]+0.007*[#  25]+0.005*[#  18]+0.004*[#  23]+0.003*[#  20]+
          +0.002*[#  16]+0.002*[#  15]+0.001*[#  11]+0.001*[#  12]+
    |psi|^2 = 0.993
==== e(  22) =    13.54995 eV ==== 
     psi = 0.325*[#  22]+0.254*[#  24]+0.250*[#  19]+0.063*[#  17]+0.019*[#  21]+
          +0.018*[#  20]+0.012*[#  30]+0.009*[#  32]+0.008*[#  29]+0.006*[#  31]+
          +0.006*[#  23]+0.005*[#  25]+0.004*[#  27]+0.003*[#  14]+0.003*[#  18]+
          +0.002*[#   3]+0.002*[#  34]+0.002*[#  13]+0.001*[#  12]+0.001*[#  11]+
          +0.001*[#  15]+
    |psi|^2 = 0.995
==== e(  23) =    13.83963 eV ==== 
     psi = 0.227*[#  21]+0.209*[#  20]+0.195*[#  22]+0.104*[#  19]+0.100*[#  24]+
          +0.060*[#  25]+0.035*[#  17]+0.030*[#  23]+0.018*[#  18]+0.004*[#  29]+
          +0.004*[#  31]+0.003*[#  30]+0.003*[#  32]+0.002*[#  33]+
    |psi|^2 = 0.998
==== e(  24) =    13.97180 eV ==== 
     psi = 0.235*[#  22]+0.213*[#  21]+0.159*[#  20]+0.102*[#  19]+0.089*[#  24]+
          +0.047*[#  17]+0.042*[#  25]+0.035*[#  31]+0.018*[#  30]+0.015*[#  32]+
          +0.011*[#  29]+0.007*[#   3]+0.007*[#  33]+0.006*[#  27]+0.004*[#  13]+
          +0.002*[#  12]+0.002*[#  14]+0.001*[#  15]+
    |psi|^2 = 0.997
==== e(  25) =    15.70658 eV ==== 
     psi = 0.320*[#  23]+0.203*[#  18]+0.097*[#  21]+0.090*[#  32]+0.070*[#  20]+
          +0.069*[#  31]+0.046*[#  29]+0.044*[#  30]+0.022*[#  33]+0.018*[#  25]+
          +0.005*[#  22]+0.004*[#  19]+0.003*[#  24]+0.002*[#  14]+0.002*[#  13]+
          +0.001*[#  11]+0.001*[#  12]+0.001*[#  17]+
    |psi|^2 = 0.998
==== e(  26) =    16.00458 eV ==== 
     psi = 0.272*[#  21]+0.190*[#  20]+0.104*[#  31]+0.103*[#  23]+0.075*[#  30]+
          +0.065*[#  18]+0.050*[#  25]+0.041*[#  32]+0.037*[#  33]+0.021*[#  29]+
          +0.013*[#  27]+0.005*[#  22]+0.003*[#  13]+0.003*[#  14]+0.003*[#  19]+
          +0.002*[#  12]+0.002*[#  24]+0.002*[#   3]+0.002*[#  11]+0.001*[#  15]+
          +0.001*[#  17]+
    |psi|^2 = 0.997
==== e(  27) =    18.70610 eV ==== 
     psi = 0.216*[#  28]+0.164*[#  16]+0.110*[#  11]+0.094*[#  15]+0.080*[#   4]+
          +0.072*[#  34]+0.055*[#  14]+0.048*[#  12]+0.047*[#  29]+0.024*[#  32]+
          +0.020*[#  33]+0.014*[#   2]+0.010*[#  30]+0.003*[#  10]+0.002*[#   5]+
          +0.001*[#  26]+0.001*[#   9]+0.001*[#  17]+
    |psi|^2 = 0.965
==== e(  28) =    19.45698 eV ==== 
     psi = 0.212*[#  27]+0.165*[#  13]+0.111*[#  12]+0.092*[#  14]+0.075*[#  31]+
          +0.068*[#   3]+0.055*[#  15]+0.049*[#  30]+0.047*[#  11]+0.025*[#  33]+
          +0.017*[#  32]+0.015*[#   1]+0.009*[#  29]+0.005*[#  21]+0.004*[#  20]+
          +0.003*[#   7]+0.002*[#   6]+0.002*[#  23]+0.001*[#   8]+0.001*[#  18]+
          +0.001*[#  22]+
    |psi|^2 = 0.962
==== e(  29) =    23.62906 eV ==== 
     psi = 0.548*[#   4]+0.046*[#  15]+0.035*[#  16]+0.030*[#  34]+0.026*[#  11]+
          +0.024*[#  12]+0.023*[#   2]+0.023*[#  33]+0.020*[#  29]+0.012*[#  14]+
          +0.011*[#  30]+0.010*[#  32]+0.003*[#  28]+
    |psi|^2 = 0.814
==== e(  30) =    24.59351 eV ==== 
     psi = 0.554*[#   3]+0.041*[#  14]+0.032*[#  13]+0.029*[#  31]+0.023*[#  12]+
          +0.022*[#  11]+0.021*[#  32]+0.021*[#   1]+0.019*[#  30]+0.011*[#  15]+
          +0.011*[#  29]+0.010*[#  33]+0.004*[#  22]+0.003*[#  19]+0.002*[#  24]+
          +0.001*[#  21]+0.001*[#  27]+
    |psi|^2 = 0.809

 k =   0.0723898293 -0.0434338976 -0.0434338976
==== e(   1) =   -75.57967 eV ==== 
     psi = 0.905*[#   2]+0.036*[#  16]+0.023*[#  11]+0.012*[#  15]+0.012*[#  14]+
          +0.006*[#  12]+0.003*[#   4]+
    |psi|^2 = 1.000
==== e(   2) =   -71.84224 eV ==== 
     psi = 0.905*[#   1]+0.036*[#  13]+0.023*[#  12]+0.013*[#  14]+0.012*[#  15]+
          +0.006*[#  11]+0.002*[#   3]+
    |psi|^2 = 1.000
==== e(   3) =   -41.98806 eV ==== 
     psi = 0.800*[#   5]+0.184*[#   8]+0.005*[#  16]+0.003*[#  11]+0.002*[#  15]+
          +0.002*[#   4]+
    |psi|^2 = 0.999
==== e(   4) =   -41.49788 eV ==== 
     psi = 0.540*[#   6]+0.443*[#   9]+0.003*[#  15]+0.003*[#  12]+0.002*[#  16]+
          +0.002*[#  14]+0.001*[#  11]+
    |psi|^2 = 0.999
==== e(   5) =   -40.82623 eV ==== 
     psi = 0.984*[#  10]+0.003*[#  11]+0.003*[#  16]+0.002*[#  15]+0.002*[#   4]+
          +0.002*[#  14]+0.001*[#  34]+
    |psi|^2 = 0.999
==== e(   6) =   -38.07673 eV ==== 
     psi = 0.540*[#   9]+0.444*[#   6]+0.005*[#  13]+0.002*[#   3]+0.001*[#  11]+
          +0.002*[#  15]+0.001*[#  14]+
    |psi|^2 = 0.998
==== e(   7) =   -37.59873 eV ==== 
     psi = 0.799*[#   8]+0.183*[#   5]+0.004*[#  14]+0.002*[#  12]+0.002*[#  13]+
          +0.002*[#  32]+0.002*[#   7]+0.001*[#  11]+
    |psi|^2 = 0.998
==== e(   8) =   -37.22073 eV ==== 
     psi = 0.984*[#   7]+0.003*[#  12]+0.002*[#  13]+0.002*[#  14]+0.002*[#  15]+
          +0.001*[#   3]+0.001*[#   8]+0.001*[#  31]+
    |psi|^2 = 0.998
==== e(   9) =    -5.95276 eV ==== 
     psi = 0.632*[#  28]+0.098*[#  16]+0.098*[#   4]+0.064*[#  11]+0.037*[#  15]+
          +0.033*[#  14]+0.018*[#  12]+0.014*[#   2]+0.002*[#  10]+
    |psi|^2 = 1.000
==== e(  10) =    -5.33951 eV ==== 
     psi = 0.630*[#  27]+0.099*[#  13]+0.097*[#   3]+0.064*[#  12]+0.037*[#  14]+
          +0.033*[#  15]+0.018*[#  11]+0.015*[#   1]+0.002*[#   7]+0.001*[#   6]+
    |psi|^2 = 1.000
==== e(  11) =     7.37183 eV ==== 
     psi = 0.242*[#  34]+0.162*[#  29]+0.100*[#   4]+0.080*[#  32]+0.069*[#  26]+
          +0.059*[#  17]+0.054*[#  33]+0.047*[#  28]+0.038*[#  25]+0.030*[#  18]+
          +0.028*[#  30]+0.020*[#  23]+0.014*[#  24]+0.014*[#  22]+0.010*[#  19]+
          +0.010*[#  20]+0.008*[#  16]+0.005*[#  11]+0.005*[#   2]+0.003*[#  14]+
    |psi|^2 = 0.998
==== e(  12) =     8.29012 eV ==== 
     psi = 0.152*[#  34]+0.133*[#  26]+0.122*[#  33]+0.121*[#  17]+0.100*[#  29]+
          +0.060*[#  30]+0.052*[#  24]+0.050*[#  32]+0.046*[#  25]+0.040*[#  18]+
          +0.038*[#  19]+0.028*[#  22]+0.026*[#  23]+0.012*[#  20]+0.009*[#   4]+
          +0.004*[#  28]+0.001*[#  16]+0.001*[#  15]+
    |psi|^2 = 0.999
==== e(  13) =     8.31041 eV ==== 
     psi = 0.268*[#  31]+0.186*[#  30]+0.121*[#   3]+0.087*[#  33]+0.084*[#  32]+
          +0.060*[#  27]+0.046*[#  29]+0.029*[#  21]+0.024*[#  20]+0.021*[#  22]+
          +0.016*[#  19]+0.011*[#  24]+0.010*[#  13]+0.006*[#  12]+0.006*[#   1]+
          +0.005*[#  17]+0.005*[#  25]+0.004*[#  23]+0.003*[#  15]+0.003*[#  18]+
    |psi|^2 = 0.997
==== e(  14) =     8.49910 eV ==== 
     psi = 0.168*[#  24]+0.160*[#  33]+0.121*[#  19]+0.113*[#  34]+0.083*[#  29]+
          +0.079*[#  30]+0.079*[#  26]+0.065*[#  17]+0.043*[#  32]+0.026*[#  25]+
          +0.018*[#  18]+0.015*[#  22]+0.012*[#  23]+0.007*[#  20]+0.003*[#  15]+
          +0.002*[#  16]+0.002*[#  11]+0.002*[#  12]+
    |psi|^2 = 0.999
==== e(  15) =     9.68864 eV ==== 
     psi = 0.250*[#  31]+0.170*[#  30]+0.150*[#  32]+0.082*[#  33]+0.078*[#  29]+
          +0.076*[#  21]+0.067*[#  20]+0.028*[#  23]+0.024*[#  18]+0.018*[#  22]+
          +0.015*[#  19]+0.013*[#  25]+0.008*[#  24]+0.006*[#  17]+0.004*[#   3]+
          +0.002*[#  14]+0.002*[#  13]+0.001*[#  12]+0.001*[#  11]+
    |psi|^2 = 0.996
==== e(  16) =     9.88756 eV ==== 
     psi = 0.244*[#  32]+0.188*[#  31]+0.129*[#  29]+0.127*[#  30]+0.068*[#  18]+
          +0.060*[#  33]+0.059*[#  23]+0.036*[#  21]+0.035*[#  20]+0.012*[#  22]+
          +0.010*[#  19]+0.006*[#  24]+0.005*[#  14]+0.004*[#  17]+0.004*[#  25]+
          +0.004*[#  13]+0.002*[#  11]+0.002*[#  12]+0.001*[#  15]+
    |psi|^2 = 0.996
==== e(  17) =    10.22349 eV ==== 
     psi = 0.308*[#  25]+0.263*[#  18]+0.191*[#  23]+0.074*[#  20]+0.059*[#  26]+
          +0.051*[#  17]+0.013*[#  22]+0.008*[#  24]+0.008*[#  33]+0.006*[#  19]+
          +0.006*[#  32]+0.003*[#  34]+0.002*[#   4]+0.002*[#  28]+0.002*[#  29]+
          +0.001*[#  30]+
    |psi|^2 = 0.999
==== e(  18) =    10.43245 eV ==== 
     psi = 0.217*[#  26]+0.187*[#  17]+0.163*[#  25]+0.111*[#  18]+0.087*[#  24]+
          +0.078*[#  23]+0.062*[#  19]+0.044*[#  22]+0.041*[#  20]+0.002*[#  34]+
          +0.001*[#  33]+
    |psi|^2 = 0.999
==== e(  19) =    10.84473 eV ==== 
     psi = 0.190*[#  25]+0.174*[#  26]+0.134*[#  17]+0.108*[#  18]+0.070*[#  23]+
          +0.060*[#  34]+0.051*[#  20]+0.046*[#  33]+0.031*[#  29]+0.028*[#  22]+
          +0.028*[#   4]+0.024*[#  28]+0.021*[#  30]+0.017*[#  32]+0.005*[#  16]+
          +0.004*[#  11]+0.002*[#   2]+0.002*[#  14]+0.002*[#  15]+0.001*[#  24]+
    |psi|^2 = 0.998
==== e(  20) =    12.14497 eV ==== 
     psi = 0.171*[#  33]+0.162*[#  24]+0.150*[#  19]+0.128*[#  34]+0.078*[#  30]+
          +0.077*[#  29]+0.073*[#  26]+0.058*[#  17]+0.043*[#  32]+0.015*[#  25]+
          +0.012*[#  18]+0.009*[#  22]+0.007*[#  23]+0.004*[#  20]+0.003*[#  15]+
          +0.002*[#  16]+0.001*[#  11]+0.002*[#  12]+
    |psi|^2 = 0.997
==== e(  21) =    12.58271 eV ==== 
     psi = 0.191*[#  26]+0.183*[#  34]+0.141*[#  17]+0.125*[#  29]+0.071*[#  33]+
          +0.069*[#  32]+0.059*[#  24]+0.058*[#  19]+0.033*[#  30]+0.024*[#  22]+
          +0.011*[#  28]+0.006*[#  25]+0.005*[#   4]+0.004*[#  18]+0.003*[#  23]+
          +0.003*[#  15]+0.002*[#  16]+0.002*[#  20]+0.001*[#  11]+0.001*[#  12]+
    |psi|^2 = 0.995
==== e(  22) =    13.12053 eV ==== 
     psi = 0.333*[#  22]+0.278*[#  19]+0.232*[#  24]+0.071*[#  17]+0.011*[#  20]+
          +0.010*[#  21]+0.010*[#  32]+0.008*[#  30]+0.007*[#  31]+0.007*[#  29]+
          +0.005*[#  27]+0.004*[#  23]+0.003*[#  25]+0.003*[#   3]+0.002*[#  14]+
          +0.002*[#  18]+0.002*[#  13]+0.001*[#  33]+0.001*[#  12]+
    |psi|^2 = 0.992
==== e(  23) =    13.50764 eV ==== 
     psi = 0.222*[#  21]+0.221*[#  20]+0.176*[#  22]+0.103*[#  19]+0.085*[#  24]+
          +0.061*[#  25]+0.042*[#  23]+0.036*[#  17]+0.026*[#  18]+0.005*[#  31]+
          +0.005*[#  32]+0.004*[#  30]+0.004*[#  29]+0.002*[#  33]+0.001*[#  14]+
          +0.001*[#  12]+
    |psi|^2 = 0.996
==== e(  24) =    13.56069 eV ==== 
     psi = 0.237*[#  22]+0.212*[#  21]+0.154*[#  20]+0.113*[#  19]+0.091*[#  24]+
          +0.050*[#  17]+0.042*[#  25]+0.024*[#  31]+0.014*[#  32]+0.013*[#  27]+
          +0.009*[#  30]+0.008*[#  29]+0.006*[#   3]+0.006*[#  13]+0.004*[#  33]+
          +0.003*[#  12]+0.002*[#  14]+0.002*[#  15]+0.001*[#   1]+0.001*[#  11]+
    |psi|^2 = 0.994
==== e(  25) =    14.77836 eV ==== 
     psi = 0.340*[#  23]+0.215*[#  18]+0.110*[#  21]+0.076*[#  20]+0.069*[#  32]+
          +0.053*[#  31]+0.035*[#  29]+0.034*[#  30]+0.020*[#  25]+0.017*[#  33]+
          +0.009*[#  22]+0.007*[#  19]+0.005*[#  24]+0.002*[#  17]+0.001*[#  14]+
          +0.001*[#  13]+
    |psi|^2 = 0.997
==== e(  26) =    15.20382 eV ==== 
     psi = 0.287*[#  21]+0.196*[#  20]+0.108*[#  23]+0.082*[#  31]+0.068*[#  18]+
          +0.059*[#  30]+0.052*[#  25]+0.038*[#  32]+0.029*[#  33]+0.021*[#  27]+
          +0.019*[#  29]+0.013*[#   3]+0.004*[#  22]+0.004*[#  14]+0.004*[#  13]+
          +0.003*[#  19]+0.002*[#  12]+0.002*[#  11]+0.002*[#  24]+0.001*[#  15]+
    |psi|^2 = 0.997
==== e(  27) =    17.16611 eV ==== 
     psi = 0.260*[#  28]+0.203*[#   4]+0.104*[#  16]+0.097*[#  34]+0.068*[#  11]+
          +0.063*[#  29]+0.042*[#  15]+0.035*[#  14]+0.032*[#  32]+0.025*[#  33]+
          +0.021*[#  12]+0.016*[#   2]+0.012*[#  30]+0.003*[#  26]+0.002*[#  17]+
          +0.002*[#  10]+0.001*[#   5]+
    |psi|^2 = 0.991
==== e(  28) =    18.01107 eV ==== 
     psi = 0.251*[#  27]+0.189*[#   3]+0.104*[#  13]+0.101*[#  31]+0.068*[#  12]+
          +0.066*[#  30]+0.040*[#  14]+0.035*[#  15]+0.034*[#  33]+0.022*[#  32]+
          +0.020*[#  11]+0.017*[#   1]+0.011*[#  29]+0.010*[#  21]+0.008*[#  20]+
          +0.004*[#  23]+0.002*[#  18]+0.002*[#  25]+0.002*[#   7]+0.001*[#  22]+
          +0.001*[#   6]+
    |psi|^2 = 0.991
==== e(  29) =    25.43601 eV ==== 
     psi = 0.235*[#   4]+0.079*[#  15]+0.060*[#  16]+0.041*[#  11]+0.040*[#  12]+
          +0.021*[#   2]+0.020*[#  14]+0.006*[#  34]+0.006*[#  33]+0.004*[#  29]+
          +0.004*[#  28]+0.003*[#  30]+0.002*[#  32]+0.001*[#  25]+
    |psi|^2 = 0.529
==== e(  30) =    26.35534 eV ==== 
     psi = 0.233*[#   3]+0.075*[#  14]+0.057*[#  13]+0.039*[#  12]+0.039*[#  11]+
          +0.020*[#   1]+0.019*[#  15]+0.006*[#  22]+0.005*[#  31]+0.005*[#  32]+
          +0.004*[#  19]+0.004*[#  30]+0.003*[#  27]+0.003*[#  24]+0.002*[#  29]+
          +0.002*[#  21]+0.002*[#  33]+0.001*[#  17]+0.001*[#  20]+
    |psi|^2 = 0.524

 k =   0.0434338976 -0.0144779659 -0.0144779659
==== e(   1) =   -75.57735 eV ==== 
     psi = 0.925*[#   2]+0.033*[#  16]+0.021*[#  11]+0.011*[#  14]+0.004*[#  15]+
          +0.002*[#   4]+0.002*[#  12]+
    |psi|^2 = 1.000
==== e(   2) =   -71.84064 eV ==== 
     psi = 0.924*[#   1]+0.033*[#  13]+0.021*[#  12]+0.011*[#  15]+0.004*[#  14]+
          +0.003*[#   3]+0.002*[#  11]+
    |psi|^2 = 1.000
==== e(   3) =   -41.96922 eV ==== 
     psi = 0.798*[#   5]+0.184*[#   8]+0.009*[#  11]+0.003*[#   4]+0.002*[#  14]+
          +0.001*[#  29]+0.001*[#  16]+
    |psi|^2 = 0.999
==== e(   4) =   -41.46839 eV ==== 
     psi = 0.539*[#   6]+0.440*[#   9]+0.008*[#  15]+0.008*[#  12]+0.001*[#  30]+
          +0.001*[#  33]+
    |psi|^2 = 0.999
==== e(   5) =   -40.80677 eV ==== 
     psi = 0.982*[#  10]+0.010*[#  16]+0.002*[#   4]+0.002*[#  34]+
    |psi|^2 = 0.999
==== e(   6) =   -38.05657 eV ==== 
     psi = 0.540*[#   9]+0.443*[#   6]+0.006*[#  15]+0.003*[#  12]+0.002*[#   3]+
          +0.001*[#  13]+0.001*[#  33]+
    |psi|^2 = 0.999
==== e(   7) =   -37.56903 eV ==== 
     psi = 0.797*[#   8]+0.183*[#   5]+0.011*[#  14]+0.003*[#  11]+0.002*[#  32]+
    |psi|^2 = 0.999
==== e(   8) =   -37.20069 eV ==== 
     psi = 0.982*[#   7]+0.009*[#  13]+0.002*[#   3]+0.002*[#  31]+
    |psi|^2 = 0.999
==== e(   9) =    -6.32795 eV ==== 
     psi = 0.609*[#  28]+0.225*[#   4]+0.068*[#  16]+0.044*[#  11]+0.023*[#  14]+
          +0.015*[#   2]+0.009*[#  15]+0.005*[#  12]+
    |psi|^2 = 1.000
==== e(  10) =    -5.71812 eV ==== 
     psi = 0.608*[#  27]+0.225*[#   3]+0.069*[#  13]+0.044*[#  12]+0.023*[#  15]+
          +0.015*[#   1]+0.009*[#  14]+0.005*[#  11]+
    |psi|^2 = 1.000
==== e(  11) =     8.70867 eV ==== 
     psi = 0.268*[#  34]+0.177*[#  29]+0.133*[#  26]+0.129*[#  17]+0.087*[#  32]+
          +0.052*[#  24]+0.038*[#  19]+0.037*[#   4]+0.030*[#  22]+0.021*[#  28]+
          +0.008*[#  25]+0.007*[#  18]+0.004*[#  23]+0.003*[#  33]+0.002*[#  20]+
          +0.002*[#   2]+0.001*[#  30]+
    |psi|^2 = 0.998
==== e(  12) =     9.40079 eV ==== 
     psi = 0.139*[#  33]+0.114*[#  18]+0.103*[#  34]+0.100*[#  26]+0.097*[#  25]+
          +0.096*[#  17]+0.076*[#  29]+0.073*[#  23]+0.072*[#  30]+0.036*[#  32]+
          +0.026*[#  20]+0.022*[#  22]+0.012*[#  24]+0.009*[#  19]+0.009*[#   4]+
          +0.004*[#  28]+0.003*[#  15]+0.003*[#  16]+0.002*[#  11]+0.002*[#  12]+
    |psi|^2 = 0.998
==== e(  13) =     9.44655 eV ==== 
     psi = 0.142*[#  33]+0.107*[#  26]+0.097*[#  34]+0.095*[#  17]+0.093*[#  24]+
          +0.080*[#  29]+0.076*[#  25]+0.074*[#  30]+0.068*[#  19]+0.046*[#  18]+
          +0.037*[#  32]+0.029*[#  23]+0.022*[#  22]+0.020*[#  20]+0.004*[#  15]+
          +0.003*[#  16]+0.002*[#  11]+0.002*[#  12]+
    |psi|^2 = 0.998
==== e(  14) =     9.84328 eV ==== 
     psi = 0.363*[#  31]+0.257*[#  30]+0.122*[#  33]+0.063*[#   3]+0.039*[#  21]+
          +0.038*[#  27]+0.036*[#  20]+0.021*[#  32]+0.012*[#  18]+0.012*[#  23]+
          +0.010*[#  29]+0.005*[#  25]+0.004*[#  22]+0.004*[#  19]+0.003*[#   1]+
          +0.002*[#  24]+0.002*[#  17]+
    |psi|^2 = 0.996
==== e(  15) =     9.99476 eV ==== 
     psi = 0.341*[#  25]+0.274*[#  18]+0.171*[#  23]+0.091*[#  20]+0.048*[#  26]+
          +0.041*[#  17]+0.009*[#  22]+0.006*[#  30]+0.005*[#  29]+0.004*[#  33]+
          +0.002*[#  24]+0.002*[#  34]+0.002*[#  19]+0.001*[#  32]+
    |psi|^2 = 0.999
==== e(  16) =    10.22663 eV ==== 
     psi = 0.210*[#  24]+0.181*[#  26]+0.166*[#  19]+0.150*[#  17]+0.101*[#  25]+
          +0.069*[#  18]+0.042*[#  23]+0.033*[#  22]+0.028*[#  20]+0.006*[#  33]+
          +0.006*[#  34]+0.003*[#  29]+0.002*[#  30]+0.001*[#  32]+
    |psi|^2 = 0.999
==== e(  17) =    10.60217 eV ==== 
     psi = 0.254*[#  32]+0.224*[#  31]+0.164*[#  30]+0.149*[#  29]+0.063*[#  33]+
          +0.028*[#  20]+0.028*[#  21]+0.019*[#  22]+0.011*[#  19]+0.009*[#  18]+
          +0.008*[#  24]+0.005*[#  23]+0.005*[#  14]+0.004*[#   3]+0.004*[#  13]+
          +0.004*[#  26]+0.003*[#  25]+0.003*[#  17]+0.003*[#  12]+0.002*[#  11]+
          +0.002*[#  27]+0.001*[#  15]+0.001*[#  34]+
    |psi|^2 = 0.996
==== e(  18) =    10.66104 eV ==== 
     psi = 0.212*[#  31]+0.192*[#  29]+0.181*[#  30]+0.169*[#  32]+0.044*[#  25]+
          +0.034*[#  18]+0.031*[#  33]+0.024*[#  26]+0.018*[#  22]+0.017*[#  34]+
          +0.017*[#  21]+0.011*[#  17]+0.011*[#  19]+0.005*[#  14]+0.005*[#  23]+
          +0.004*[#  24]+0.004*[#  13]+0.004*[#  20]+0.003*[#   4]+0.003*[#  12]+
          +0.002*[#  28]+0.002*[#  11]+0.001*[#  15]+
    |psi|^2 = 0.996
==== e(  19) =    10.67814 eV ==== 
     psi = 0.175*[#  33]+0.158*[#  32]+0.107*[#  34]+0.103*[#  26]+0.098*[#  17]+
          +0.093*[#  25]+0.066*[#  23]+0.045*[#  18]+0.041*[#  20]+0.020*[#  31]+
          +0.019*[#   4]+0.014*[#  22]+0.014*[#  28]+0.013*[#  30]+0.012*[#  29]+
          +0.008*[#  24]+0.003*[#  21]+0.002*[#  11]+0.001*[#  19]+0.001*[#  16]+
    |psi|^2 = 0.997
==== e(  20) =    11.06552 eV ==== 
     psi = 0.189*[#  33]+0.139*[#  34]+0.119*[#  24]+0.094*[#  19]+0.085*[#  26]+
          +0.080*[#  30]+0.079*[#  29]+0.060*[#  17]+0.048*[#  32]+0.035*[#  25]+
          +0.026*[#  18]+0.016*[#  23]+0.012*[#  22]+0.010*[#  20]+0.002*[#  15]+
          +0.001*[#  16]+
    |psi|^2 = 0.997
==== e(  21) =    11.52538 eV ==== 
     psi = 0.210*[#  26]+0.177*[#  34]+0.140*[#  17]+0.118*[#  29]+0.073*[#  32]+
          +0.069*[#  24]+0.055*[#  19]+0.049*[#  33]+0.030*[#  22]+0.023*[#   4]+
          +0.023*[#  30]+0.020*[#  28]+0.002*[#  25]+0.002*[#  15]+0.001*[#  16]+
          +0.001*[#  18]+
    |psi|^2 = 0.997
==== e(  22) =    12.85198 eV ==== 
     psi = 0.341*[#  22]+0.312*[#  19]+0.241*[#  24]+0.075*[#  17]+0.004*[#  32]+
          +0.004*[#  21]+0.003*[#  20]+0.003*[#  30]+0.003*[#  31]+0.002*[#  29]+
    |psi|^2 = 0.990
==== e(  23) =    13.18758 eV ==== 
     psi = 0.275*[#  20]+0.252*[#  21]+0.133*[#  22]+0.085*[#  19]+0.075*[#  25]+
          +0.065*[#  24]+0.029*[#  17]+0.018*[#  23]+0.016*[#  31]+0.011*[#  18]+
          +0.011*[#  30]+0.010*[#  32]+0.006*[#  29]+0.006*[#  33]+
    |psi|^2 = 0.994
==== e(  24) =    13.20538 eV ==== 
     psi = 0.298*[#  22]+0.158*[#  21]+0.134*[#  19]+0.123*[#  20]+0.103*[#  24]+
          +0.066*[#  17]+0.034*[#  25]+0.024*[#  32]+0.018*[#  31]+0.013*[#  29]+
          +0.005*[#  30]+0.004*[#  27]+0.003*[#   3]+0.003*[#  33]+0.002*[#  23]+
          +0.002*[#  13]+0.001*[#  18]+
    |psi|^2 = 0.994
==== e(  25) =    13.85189 eV ==== 
     psi = 0.423*[#  23]+0.265*[#  18]+0.137*[#  21]+0.079*[#  20]+0.021*[#  25]+
          +0.019*[#  32]+0.015*[#  31]+0.010*[#  29]+0.009*[#  30]+0.005*[#  22]+
          +0.005*[#  33]+0.003*[#  19]+0.002*[#  24]+0.001*[#  17]+
    |psi|^2 = 0.995
==== e(  26) =    14.23910 eV ==== 
     psi = 0.340*[#  21]+0.217*[#  20]+0.123*[#  23]+0.077*[#  18]+0.057*[#  25]+
          +0.042*[#  31]+0.037*[#   3]+0.032*[#  27]+0.031*[#  30]+0.015*[#  33]+
          +0.010*[#  32]+0.005*[#  29]+0.002*[#  13]+0.001*[#   1]+0.001*[#  12]+
          +0.001*[#  14]+
    |psi|^2 = 0.995
==== e(  27) =    15.44089 eV ==== 
     psi = 0.380*[#   4]+0.316*[#  28]+0.067*[#  34]+0.060*[#  16]+0.044*[#  29]+
          +0.039*[#  11]+0.022*[#  32]+0.020*[#  14]+0.016*[#   2]+0.008*[#  15]+
          +0.007*[#  33]+0.004*[#  12]+0.003*[#  30]+0.003*[#  26]+0.002*[#  17]+
          +0.001*[#  24]+
    |psi|^2 = 0.995
==== e(  28) =    16.30091 eV ==== 
     psi = 0.357*[#   3]+0.302*[#  27]+0.071*[#  31]+0.060*[#  13]+0.047*[#  30]+
          +0.039*[#  12]+0.024*[#  33]+0.020*[#  15]+0.017*[#   1]+0.014*[#  21]+
          +0.010*[#  20]+0.008*[#  14]+0.006*[#  32]+0.005*[#  23]+0.004*[#  11]+
          +0.003*[#  18]+0.003*[#  25]+0.003*[#  29]+
    |psi|^2 = 0.995
==== e(  29) =    27.55647 eV ==== 
     psi = 0.033*[#  15]+0.025*[#  16]+0.017*[#  11]+0.016*[#  12]+0.013*[#   4]+
          +0.009*[#  14]+0.002*[#   2]+
    |psi|^2 = 0.122
==== e(  30) =    28.32294 eV ==== 
     psi = 0.029*[#  14]+0.022*[#  13]+0.015*[#  12]+0.015*[#  11]+0.011*[#   3]+
          +0.007*[#  15]+0.003*[#  22]+0.002*[#  19]+0.002*[#  24]+0.001*[#   1]+
    |psi|^2 = 0.115

 k =   0.0144779659  0.0144779659  0.0723898293
==== e(   1) =   -75.57553 eV ==== 
     psi = 0.906*[#   2]+0.058*[#  15]+0.028*[#  12]+0.003*[#  16]+0.002*[#  11]+
          +0.001*[#  14]+
    |psi|^2 = 1.000
==== e(   2) =   -71.83871 eV ==== 
     psi = 0.905*[#   1]+0.058*[#  14]+0.028*[#  11]+0.003*[#  13]+0.002*[#  12]+
          +0.001*[#  15]+
    |psi|^2 = 1.000
==== e(   3) =   -41.95071 eV ==== 
     psi = 0.801*[#   5]+0.181*[#   8]+0.008*[#  11]+0.004*[#  14]+0.002*[#  29]+
    |psi|^2 = 0.998
==== e(   4) =   -41.50973 eV ==== 
     psi = 0.540*[#   6]+0.450*[#   9]+0.005*[#   4]+
    |psi|^2 = 0.998
==== e(   5) =   -40.78781 eV ==== 
     psi = 0.982*[#  10]+0.012*[#  16]+0.003*[#  34]+
    |psi|^2 = 0.998
==== e(   6) =   -38.04178 eV ==== 
     psi = 0.538*[#   9]+0.446*[#   6]+0.007*[#  12]+0.003*[#  15]+0.002*[#  30]+
          +0.001*[#  33]+
    |psi|^2 = 0.998
==== e(   7) =   -37.61074 eV ==== 
     psi = 0.806*[#   8]+0.184*[#   5]+0.005*[#   3]+
    |psi|^2 = 0.998
==== e(   8) =   -37.18427 eV ==== 
     psi = 0.983*[#   7]+0.011*[#  13]+0.003*[#  31]+
    |psi|^2 = 0.998
==== e(   9) =    -6.13799 eV ==== 
     psi = 0.618*[#  28]+0.145*[#   4]+0.134*[#  15]+0.065*[#  12]+0.015*[#   2]+
          +0.009*[#  16]+0.006*[#  11]+0.003*[#  14]+0.001*[#  24]+0.001*[#   9]+
    |psi|^2 = 1.000
==== e(  10) =    -5.52582 eV ==== 
     psi = 0.616*[#  27]+0.144*[#   3]+0.135*[#  14]+0.066*[#  11]+0.016*[#   1]+
          +0.009*[#  13]+0.006*[#  12]+0.003*[#  15]+0.001*[#   8]+0.001*[#  23]+
    |psi|^2 = 1.000
==== e(  11) =     7.76701 eV ==== 
     psi = 0.356*[#  33]+0.196*[#  24]+0.180*[#  30]+0.138*[#  19]+0.049*[#   4]+
          +0.032*[#  28]+0.013*[#  15]+0.007*[#  25]+0.006*[#  12]+0.005*[#  18]+
          +0.004*[#   2]+0.003*[#  23]+0.003*[#  34]+0.002*[#  29]+0.002*[#  20]+
          +0.001*[#  32]+
    |psi|^2 = 0.998
==== e(  12) =     8.89169 eV ==== 
     psi = 0.445*[#  32]+0.225*[#  29]+0.081*[#  23]+0.067*[#   3]+0.061*[#  18]+
          +0.052*[#  27]+0.017*[#  14]+0.011*[#  31]+0.008*[#  11]+0.008*[#  30]+
          +0.006*[#   1]+0.004*[#  22]+0.004*[#  33]+0.004*[#  19]+0.002*[#  24]+
          +0.001*[#  17]+
    |psi|^2 = 0.996
==== e(  13) =     9.15390 eV ==== 
     psi = 0.196*[#  29]+0.179*[#  34]+0.120*[#  18]+0.094*[#  32]+0.088*[#  25]+
          +0.078*[#  23]+0.074*[#  26]+0.046*[#  17]+0.032*[#  24]+0.023*[#  20]+
          +0.023*[#  19]+0.011*[#  22]+0.008*[#  11]+0.007*[#   4]+0.007*[#  16]+
          +0.004*[#  14]+0.004*[#  28]+0.001*[#  33]+
    |psi|^2 = 0.998
==== e(  14) =     9.22640 eV ==== 
     psi = 0.291*[#  34]+0.158*[#  25]+0.130*[#  29]+0.087*[#  18]+0.086*[#  17]+
          +0.062*[#  32]+0.057*[#  23]+0.045*[#  26]+0.042*[#  20]+0.020*[#  22]+
          +0.012*[#  16]+0.005*[#  11]+0.003*[#  14]+
    |psi|^2 = 0.999
==== e(  15) =     9.89198 eV ==== 
     psi = 0.394*[#  17]+0.359*[#  26]+0.087*[#  22]+0.059*[#  25]+0.026*[#  34]+
          +0.020*[#  18]+0.017*[#  20]+0.014*[#  23]+0.008*[#  29]+0.005*[#  24]+
          +0.004*[#  19]+0.003*[#  32]+
    |psi|^2 = 0.998
==== e(  16) =    10.33496 eV ==== 
     psi = 0.290*[#  30]+0.259*[#  31]+0.136*[#  33]+0.061*[#  26]+0.059*[#  18]+
          +0.057*[#  17]+0.029*[#  19]+0.017*[#  20]+0.016*[#  24]+0.011*[#  21]+
          +0.011*[#  32]+0.009*[#  29]+0.009*[#  12]+0.008*[#  13]+0.006*[#  25]+
          +0.005*[#  15]+0.004*[#   3]+0.004*[#  22]+0.001*[#  27]+
    |psi|^2 = 0.997
==== e(  17) =    10.36622 eV ==== 
     psi = 0.339*[#  26]+0.178*[#  17]+0.097*[#  30]+0.088*[#  25]+0.083*[#  23]+
          +0.065*[#  18]+0.047*[#  33]+0.046*[#  22]+0.023*[#  20]+0.010*[#  19]+
          +0.006*[#  24]+0.004*[#  21]+0.004*[#  32]+0.003*[#  12]+0.003*[#  31]+
          +0.001*[#  15]+
    |psi|^2 = 0.999
==== e(  18) =    10.42182 eV ==== 
     psi = 0.556*[#  31]+0.169*[#  30]+0.079*[#  33]+0.075*[#  22]+0.020*[#  19]+
          +0.018*[#  13]+0.016*[#  25]+0.013*[#  26]+0.010*[#  24]+0.010*[#  21]+
          +0.009*[#  20]+0.007*[#  23]+0.006*[#  12]+0.003*[#  15]+0.002*[#  18]+
    |psi|^2 = 0.996
==== e(  19) =    10.96284 eV ==== 
     psi = 0.207*[#  25]+0.172*[#  18]+0.134*[#  34]+0.116*[#  29]+0.113*[#  23]+
          +0.064*[#  32]+0.059*[#  20]+0.028*[#  24]+0.019*[#   4]+0.019*[#  19]+
          +0.018*[#  33]+0.018*[#  28]+0.015*[#  26]+0.005*[#  30]+0.004*[#  15]+
          +0.002*[#  12]+0.002*[#  17]+0.001*[#   2]+
    |psi|^2 = 0.998
==== e(  20) =    11.25764 eV ==== 
     psi = 0.261*[#  34]+0.151*[#  25]+0.145*[#  29]+0.091*[#  26]+0.086*[#  18]+
          +0.078*[#  32]+0.066*[#  17]+0.056*[#  23]+0.044*[#  20]+0.014*[#  22]+
          +0.003*[#  16]+0.002*[#  11]+
    |psi|^2 = 0.998
==== e(  21) =    11.84477 eV ==== 
     psi = 0.294*[#  24]+0.233*[#  19]+0.145*[#  33]+0.071*[#  34]+0.056*[#  30]+
          +0.054*[#  28]+0.044*[#  29]+0.042*[#   4]+0.023*[#  32]+0.007*[#  15]+
          +0.005*[#  25]+0.004*[#  12]+0.003*[#  16]+0.003*[#  18]+0.003*[#   2]+
          +0.002*[#  11]+0.002*[#  23]+0.002*[#  20]+0.001*[#  26]+
    |psi|^2 = 0.996
==== e(  22) =    12.67725 eV ==== 
     psi = 0.438*[#  21]+0.407*[#  20]+0.117*[#  25]+0.009*[#  31]+0.004*[#  30]+
          +0.003*[#  22]+0.002*[#  33]+0.001*[#  19]+0.001*[#  24]+
    |psi|^2 = 0.987
==== e(  23) =    13.50685 eV ==== 
     psi = 0.410*[#  19]+0.318*[#  24]+0.064*[#  22]+0.064*[#  21]+0.047*[#  20]+
          +0.041*[#  30]+0.017*[#  33]+0.014*[#  17]+0.013*[#  25]+0.004*[#  31]+
          +0.001*[#  12]+
    |psi|^2 = 0.996
==== e(  24) =    13.57366 eV ==== 
     psi = 0.608*[#  22]+0.138*[#  17]+0.066*[#  31]+0.063*[#  19]+0.049*[#  24]+
          +0.027*[#  21]+0.011*[#  30]+0.009*[#  20]+0.005*[#  33]+0.005*[#  27]+
          +0.003*[#   3]+0.003*[#  23]+0.002*[#  25]+0.002*[#  13]+0.002*[#  18]+
          +0.001*[#  14]+0.001*[#  32]+
    |psi|^2 = 0.996
==== e(  25) =    13.94779 eV ==== 
     psi = 0.436*[#  21]+0.290*[#  20]+0.078*[#  25]+0.052*[#  22]+0.041*[#  31]+
          +0.027*[#  19]+0.026*[#  30]+0.020*[#  24]+0.013*[#  33]+0.012*[#  17]+
    |psi|^2 = 0.996
==== e(  26) =    14.52716 eV ==== 
     psi = 0.446*[#  23]+0.279*[#  18]+0.081*[#  27]+0.069*[#   3]+0.032*[#  32]+
          +0.019*[#  31]+0.017*[#  29]+0.013*[#  14]+0.012*[#  30]+0.006*[#  11]+
          +0.006*[#  33]+0.003*[#   1]+0.003*[#  13]+0.002*[#  22]+0.002*[#  12]+
          +0.001*[#  19]+
    |psi|^2 = 0.996
==== e(  27) =    16.58100 eV ==== 
     psi = 0.270*[#   4]+0.257*[#  28]+0.155*[#  33]+0.115*[#  15]+0.077*[#  30]+
          +0.056*[#  12]+0.014*[#   2]+0.014*[#  24]+0.008*[#  16]+0.008*[#  19]+
          +0.005*[#  11]+0.005*[#  34]+0.003*[#  29]+0.003*[#  14]+0.002*[#  32]+
          +0.001*[#   9]+
    |psi|^2 = 0.995
==== e(  28) =    17.54461 eV ==== 
     psi = 0.231*[#   3]+0.228*[#  27]+0.165*[#  32]+0.113*[#  14]+0.082*[#  29]+
          +0.055*[#  11]+0.051*[#  23]+0.033*[#  18]+0.014*[#   1]+0.007*[#  13]+
          +0.005*[#  12]+0.004*[#  31]+0.002*[#  15]+0.002*[#  30]+0.001*[#   8]+
          +0.001*[#  33]+
    |psi|^2 = 0.995
==== e(  29) =    26.60671 eV ==== 
     psi = 0.060*[#  16]+0.040*[#  11]+0.020*[#  14]+0.009*[#   4]+0.002*[#  34]+
          +0.001*[#  10]+0.001*[#  26]+0.001*[#  29]+
    |psi|^2 = 0.138
==== e(  30) =    27.51512 eV ==== 
     psi = 0.057*[#  13]+0.038*[#  12]+0.019*[#  15]+0.009*[#   3]+0.006*[#  21]+
          +0.005*[#  20]+0.001*[#  31]+0.001*[#   7]+0.001*[#  25]+
    |psi|^2 = 0.144

 k =  -0.0144779659  0.0434338976  0.1013457610
==== e(   1) =   -75.57872 eV ==== 
     psi = 0.911*[#   2]+0.046*[#  15]+0.022*[#  12]+0.007*[#  16]+0.005*[#   4]+
          +0.004*[#  11]+0.002*[#  14]+
    |psi|^2 = 1.000
==== e(   2) =   -71.84130 eV ==== 
     psi = 0.910*[#   1]+0.047*[#  14]+0.022*[#  11]+0.007*[#  13]+0.004*[#  12]+
          +0.004*[#   3]+0.002*[#  15]+
    |psi|^2 = 1.000
==== e(   3) =   -41.97806 eV ==== 
     psi = 0.802*[#   5]+0.182*[#   8]+0.004*[#  11]+0.002*[#  14]+0.003*[#  15]+
          +0.002*[#  29]+0.001*[#  32]+
    |psi|^2 = 0.998
==== e(   4) =   -41.53033 eV ==== 
     psi = 0.539*[#   6]+0.448*[#   9]+0.003*[#   4]+0.003*[#  16]+0.002*[#  14]+
          +0.002*[#  11]+0.001*[#  15]+
    |psi|^2 = 0.998
==== e(   5) =   -40.81483 eV ==== 
     psi = 0.985*[#  10]+0.007*[#  16]+0.003*[#  34]+0.002*[#  15]+
    |psi|^2 = 0.998
==== e(   6) =   -38.06854 eV ==== 
     psi = 0.538*[#   9]+0.447*[#   6]+0.004*[#  12]+0.002*[#  30]+0.002*[#  11]+
          +0.001*[#  14]+0.001*[#  15]+
    |psi|^2 = 0.998
==== e(   7) =   -37.63263 eV ==== 
     psi = 0.802*[#   8]+0.183*[#   5]+0.003*[#   3]+0.003*[#  13]+0.003*[#  12]+
    |psi|^2 = 0.998
==== e(   8) =   -37.21016 eV ==== 
     psi = 0.985*[#   7]+0.006*[#  13]+0.003*[#  31]+0.002*[#  14]+
    |psi|^2 = 0.998
==== e(   9) =    -5.82377 eV ==== 
     psi = 0.659*[#  28]+0.124*[#  15]+0.078*[#   4]+0.061*[#  12]+0.027*[#  16]+
          +0.017*[#  11]+0.011*[#   2]+0.009*[#  14]+0.005*[#  24]+0.003*[#  19]+
          +0.002*[#   9]+0.001*[#   6]+
    |psi|^2 = 1.000
==== e(  10) =    -5.20691 eV ==== 
     psi = 0.658*[#  27]+0.125*[#  14]+0.078*[#   3]+0.061*[#  11]+0.027*[#  13]+
[...]
    |psi|^2 = 0.994
==== e(  23) =    13.81496 eV ==== 
     psi = 0.396*[#  22]+0.212*[#  19]+0.174*[#  24]+0.088*[#  17]+0.037*[#  31]+
          +0.028*[#  20]+0.023*[#  30]+0.019*[#  21]+0.008*[#  25]+0.008*[#  33]+
          +0.001*[#  32]+
    |psi|^2 = 0.997
==== e(  24) =    14.24138 eV ==== 
     psi = 0.439*[#  20]+0.370*[#  21]+0.119*[#  25]+0.025*[#  31]+0.018*[#  22]+
          +0.008*[#  30]+0.004*[#  19]+0.004*[#  17]+0.004*[#  33]+0.003*[#  24]+
          +0.002*[#  23]+
    |psi|^2 = 0.999
==== e(  25) =    14.73918 eV ==== 
     psi = 0.509*[#  21]+0.240*[#  20]+0.064*[#  25]+0.048*[#  27]+0.025*[#  23]+
          +0.018*[#  31]+0.017*[#  30]+0.016*[#  18]+0.013*[#  22]+0.009*[#  19]+
          +0.008*[#  33]+0.008*[#   3]+0.007*[#  24]+0.003*[#  32]+0.003*[#  13]+
          +0.003*[#  17]+0.002*[#  12]+0.002*[#  29]+
    |psi|^2 = 0.999
==== e(  26) =    15.56229 eV ==== 
     psi = 0.458*[#  23]+0.291*[#  18]+0.089*[#  32]+0.046*[#  29]+0.027*[#   3]+
          +0.021*[#  31]+0.021*[#  21]+0.015*[#  30]+0.014*[#  20]+0.007*[#  33]+
          +0.004*[#  25]+0.002*[#  13]+0.002*[#  12]+
    |psi|^2 = 0.998
==== e(  27) =    22.11751 eV ==== 
     psi = 0.797*[#   4]+0.069*[#  33]+0.035*[#  30]+0.022*[#  34]+0.015*[#  29]+
          +0.012*[#   2]+0.009*[#  16]+0.008*[#  32]+0.005*[#  11]+0.003*[#  14]+
          +0.002*[#  24]+0.001*[#  19]+
    |psi|^2 = 0.980
==== e(  28) =    22.84191 eV ==== 
     psi = 0.281*[#  16]+0.191*[#  11]+0.098*[#  15]+0.094*[#  14]+0.050*[#  12]+
          +0.047*[#  34]+0.045*[#  28]+0.031*[#  29]+0.014*[#  32]+0.012*[#   4]+
          +0.004*[#  25]+0.003*[#  18]+0.002*[#  23]+
    |psi|^2 = 0.875
==== e(  29) =    23.22282 eV ==== 
     psi = 0.781*[#   3]+0.068*[#  32]+0.034*[#  29]+0.022*[#  31]+0.015*[#  30]+
          +0.013*[#  13]+0.011*[#   1]+0.008*[#  12]+0.008*[#  33]+0.004*[#  23]+
          +0.003*[#  15]+0.003*[#  18]+0.001*[#  14]+
    |psi|^2 = 0.975
==== e(  30) =    23.70135 eV ==== 
     psi = 0.276*[#  13]+0.189*[#  12]+0.091*[#  15]+0.085*[#  14]+0.060*[#  11]+
          +0.046*[#  31]+0.043*[#  27]+0.029*[#  30]+0.015*[#   3]+0.015*[#  33]+
          +0.010*[#  22]+0.007*[#  19]+0.005*[#  24]+0.002*[#  17]+0.002*[#  21]+
          +0.002*[#  20]+
    |psi|^2 = 0.879

 k =   0.0723898293 -0.2750813512  0.0723898293
==== e(   1) =   -75.58134 eV ==== 
     psi = 0.982*[#   2]+0.008*[#   4]+0.002*[#  16]+0.002*[#  33]+0.002*[#  34]+
          +0.001*[#  11]+0.001*[#  29]+
    |psi|^2 = 1.000
==== e(   2) =   -71.84318 eV ==== 
     psi = 0.982*[#   1]+0.007*[#   3]+0.002*[#  13]+0.002*[#  31]+0.002*[#  32]+
          +0.001*[#  12]+0.001*[#  30]+
    |psi|^2 = 1.000
==== e(   3) =   -42.03137 eV ==== 
     psi = 0.803*[#   5]+0.184*[#   8]+0.004*[#  34]+0.002*[#  16]+
    |psi|^2 = 0.998
==== e(   4) =   -41.54460 eV ==== 
     psi = 0.542*[#   6]+0.446*[#   9]+0.002*[#   5]+0.002*[#  33]+0.001*[#  16]+
          +0.001*[#  10]+0.001*[#  15]+
    |psi|^2 = 0.998
==== e(   5) =   -40.87031 eV ==== 
     psi = 0.988*[#  10]+0.003*[#  29]+0.001*[#  11]+0.001*[#  32]+
    |psi|^2 = 0.998
==== e(   6) =   -38.12222 eV ==== 
     psi = 0.542*[#   9]+0.445*[#   6]+0.004*[#  31]+0.002*[#  13]+0.002*[#   8]+
    |psi|^2 = 0.998
==== e(   7) =   -37.64672 eV ==== 
     psi = 0.801*[#   8]+0.184*[#   5]+0.004*[#   7]+0.001*[#  32]+0.001*[#  12]+
          +0.001*[#  13]+0.001*[#   6]+0.001*[#   9]+
    |psi|^2 = 0.998
==== e(   8) =   -37.26593 eV ==== 
     psi = 0.985*[#   7]+0.003*[#   8]+0.003*[#  30]+0.001*[#  33]+0.001*[#  12]+
    |psi|^2 = 0.998
==== e(   9) =    -5.22335 eV ==== 
     psi = 0.835*[#  28]+0.036*[#  16]+0.031*[#  15]+0.025*[#  11]+0.016*[#  12]+
          +0.014*[#  26]+0.012*[#  14]+0.011*[#  17]+0.006*[#  24]+0.004*[#  19]+
          +0.003*[#  22]+0.003*[#   4]+
    |psi|^2 = 0.999
==== e(  10) =    -4.59059 eV ==== 
     psi = 0.837*[#  27]+0.037*[#  13]+0.032*[#  14]+0.025*[#  12]+0.016*[#  11]+
          +0.013*[#  21]+0.012*[#  15]+0.010*[#  20]+0.005*[#  23]+0.003*[#  18]+
          +0.003*[#   3]+0.003*[#  25]+0.001*[#   7]+
    |psi|^2 = 0.999
==== e(  11) =     6.35984 eV ==== 
     psi = 0.204*[#  34]+0.136*[#  29]+0.131*[#  33]+0.111*[#   4]+0.067*[#  32]+
          +0.066*[#  30]+0.056*[#  25]+0.043*[#  18]+0.036*[#  16]+0.028*[#  23]+
          +0.025*[#  11]+0.024*[#  26]+0.020*[#  17]+0.014*[#  20]+0.012*[#  14]+
          +0.009*[#  15]+0.005*[#  22]+0.005*[#  12]+0.003*[#   2]+0.001*[#  10]+
    |psi|^2 = 1.000
==== e(  12) =     7.17887 eV ==== 
     psi = 0.231*[#  31]+0.155*[#  30]+0.137*[#  32]+0.117*[#   3]+0.077*[#  33]+
          +0.069*[#  29]+0.043*[#  13]+0.031*[#  22]+0.029*[#  12]+0.024*[#  19]+
          +0.015*[#  24]+0.015*[#  21]+0.014*[#  15]+0.012*[#  20]+0.009*[#  14]+
          +0.008*[#  17]+0.005*[#  11]+0.003*[#   1]+0.003*[#  25]+0.001*[#   7]+
    |psi|^2 = 0.999
==== e(  13) =     7.39348 eV ==== 
     psi = 0.243*[#  34]+0.160*[#  29]+0.087*[#  26]+0.079*[#  32]+0.076*[#  17]+
          +0.062*[#  33]+0.040*[#  16]+0.036*[#  25]+0.031*[#  30]+0.031*[#  24]+
          +0.028*[#  18]+0.028*[#  11]+0.022*[#  19]+0.018*[#  23]+0.018*[#  22]+
          +0.014*[#  14]+0.009*[#  20]+0.007*[#  15]+0.003*[#  12]+0.003*[#   4]+
          +0.002*[#  10]+0.001*[#   5]+
    |psi|^2 = 0.999
==== e(  14) =     7.79804 eV ==== 
     psi = 0.185*[#  24]+0.177*[#  33]+0.131*[#  19]+0.129*[#  34]+0.091*[#  29]+
          +0.088*[#  30]+0.058*[#  26]+0.049*[#  17]+0.045*[#  32]+0.011*[#  22]+
          +0.007*[#  15]+0.006*[#  16]+0.005*[#  25]+0.004*[#  12]+0.004*[#  18]+
          +0.003*[#  11]+0.002*[#  23]+0.002*[#  14]+0.001*[#  20]+
    |psi|^2 = 0.999
==== e(  15) =     8.44911 eV ==== 
     psi = 0.285*[#  31]+0.192*[#  30]+0.093*[#  33]+0.090*[#  32]+0.046*[#  21]+
          +0.046*[#  29]+0.045*[#  13]+0.039*[#  20]+0.031*[#  12]+0.021*[#  22]+
          +0.016*[#  19]+0.016*[#  23]+0.015*[#  15]+0.012*[#  18]+0.011*[#  24]+
          +0.009*[#  25]+0.008*[#   3]+0.008*[#  14]+0.006*[#  17]+0.004*[#  11]+
          +0.002*[#   7]+0.002*[#   6]+
    |psi|^2 = 0.997
==== e(  16) =     9.13105 eV ==== 
     psi = 0.240*[#  32]+0.181*[#  31]+0.123*[#  29]+0.123*[#  30]+0.095*[#  23]+
          +0.073*[#  18]+0.060*[#  33]+0.031*[#  21]+0.027*[#  20]+0.011*[#  14]+
          +0.008*[#  13]+0.006*[#  25]+0.005*[#  11]+0.005*[#  12]+0.003*[#  22]+
          +0.003*[#  15]+0.002*[#  19]+0.001*[#  24]+
    |psi|^2 = 0.998
==== e(  17) =    10.44346 eV ==== 
     psi = 0.277*[#  25]+0.239*[#  18]+0.160*[#  23]+0.071*[#  20]+0.067*[#  26]+
          +0.066*[#  17]+0.022*[#  24]+0.017*[#  33]+0.016*[#  19]+0.015*[#  22]+
          +0.010*[#  28]+0.010*[#  34]+0.009*[#  29]+0.007*[#  30]+0.006*[#  32]+
          +0.004*[#   4]+
    |psi|^2 = 0.998
==== e(  18) =    10.84816 eV ==== 
     psi = 0.226*[#  26]+0.216*[#  17]+0.182*[#  25]+0.149*[#  18]+0.097*[#  23]+
          +0.050*[#  22]+0.049*[#  20]+0.017*[#  24]+0.012*[#  19]+
    |psi|^2 = 1.000
==== e(  19) =    11.24201 eV ==== 
     psi = 0.201*[#  25]+0.195*[#  26]+0.157*[#  17]+0.115*[#  18]+0.073*[#  23]+
          +0.060*[#  34]+0.056*[#  20]+0.034*[#  22]+0.029*[#  29]+0.025*[#  33]+
          +0.020*[#   4]+0.015*[#  32]+0.012*[#  30]+0.003*[#  24]+0.003*[#  19]+
          +0.001*[#  16]+0.001*[#  11]+
    |psi|^2 = 0.999
==== e(  20) =    12.16144 eV ==== 
     psi = 0.246*[#  26]+0.166*[#  17]+0.101*[#  34]+0.078*[#  24]+0.067*[#  29]+
          +0.064*[#  19]+0.042*[#  33]+0.040*[#  28]+0.035*[#  32]+0.033*[#  22]+
          +0.025*[#  25]+0.019*[#  18]+0.019*[#  30]+0.013*[#  23]+0.012*[#  16]+
          +0.011*[#   4]+0.009*[#  11]+0.007*[#  20]+0.004*[#  14]+0.001*[#  15]+
    |psi|^2 = 0.995
==== e(  21) =    12.84854 eV ==== 
     psi = 0.222*[#  19]+0.183*[#  24]+0.148*[#  33]+0.101*[#  34]+0.078*[#  26]+
          +0.065*[#  29]+0.064*[#  17]+0.061*[#  30]+0.044*[#  32]+0.006*[#  15]+
          +0.005*[#  16]+0.004*[#  12]+0.004*[#  22]+0.004*[#  11]+0.003*[#  25]+
          +0.002*[#  18]+0.001*[#  23]+0.001*[#  14]+0.001*[#  20]+
    |psi|^2 = 0.997
==== e(  22) =    13.31157 eV ==== 
     psi = 0.336*[#  22]+0.234*[#  24]+0.216*[#  19]+0.060*[#  17]+0.020*[#  30]+
          +0.019*[#  21]+0.018*[#  20]+0.017*[#  29]+0.017*[#  32]+0.016*[#  31]+
          +0.008*[#  23]+0.006*[#  27]+0.005*[#  25]+0.004*[#  18]+0.004*[#   3]+
          +0.003*[#  14]+0.002*[#  13]+0.002*[#  34]+0.001*[#  33]+0.001*[#  15]+
    |psi|^2 = 0.993
==== e(  23) =    14.03373 eV ==== 
     psi = 0.224*[#  20]+0.220*[#  21]+0.194*[#  22]+0.131*[#  19]+0.106*[#  24]+
          +0.062*[#  25]+0.043*[#  17]+0.008*[#  23]+0.005*[#  18]+0.001*[#  30]+
          +0.001*[#  32]+0.001*[#  31]+
    |psi|^2 = 0.999
==== e(  24) =    14.19219 eV ==== 
     psi = 0.215*[#  21]+0.210*[#  22]+0.176*[#  20]+0.114*[#  19]+0.089*[#  24]+
          +0.048*[#  25]+0.047*[#  17]+0.042*[#  31]+0.021*[#  30]+0.009*[#  33]+
          +0.009*[#  32]+0.006*[#   3]+0.005*[#  29]+0.004*[#  23]+0.002*[#  18]+
          +0.001*[#  27]+
    |psi|^2 = 0.999
==== e(  25) =    15.18606 eV ==== 
     psi = 0.326*[#  21]+0.206*[#  20]+0.119*[#  23]+0.075*[#  18]+0.055*[#  25]+
          +0.045*[#  27]+0.043*[#  31]+0.030*[#  30]+0.018*[#  32]+0.015*[#  33]+
          +0.013*[#  22]+0.009*[#  29]+0.009*[#  19]+0.008*[#  13]+0.007*[#   3]+
          +0.007*[#  24]+0.005*[#  12]+0.003*[#  17]+0.003*[#  15]+0.001*[#  14]+
    |psi|^2 = 0.998
==== e(  26) =    15.70152 eV ==== 
     psi = 0.347*[#  23]+0.220*[#  18]+0.106*[#  21]+0.073*[#  32]+0.071*[#  20]+
          +0.054*[#  31]+0.039*[#  30]+0.038*[#  29]+0.019*[#  33]+0.018*[#  25]+
          +0.004*[#  14]+0.003*[#  13]+0.002*[#  11]+0.002*[#  12]+0.001*[#  22]+
    |psi|^2 = 0.999
==== e(  27) =    21.47041 eV ==== 
     psi = 0.191*[#   4]+0.191*[#  16]+0.128*[#  11]+0.104*[#  15]+0.079*[#  28]+
          +0.064*[#  14]+0.053*[#  12]+0.053*[#  34]+0.035*[#  29]+0.018*[#  32]+
          +0.002*[#  25]+0.002*[#  26]+0.001*[#  18]+0.001*[#  17]+
    |psi|^2 = 0.928
==== e(  28) =    22.30603 eV ==== 
     psi = 0.204*[#  13]+0.136*[#   3]+0.134*[#  12]+0.107*[#  14]+0.079*[#  27]+
          +0.071*[#  15]+0.057*[#  11]+0.052*[#  31]+0.037*[#  30]+0.015*[#  33]+
          +0.006*[#  22]+0.005*[#  21]+0.004*[#  19]+0.004*[#  20]+0.003*[#  24]+
          +0.001*[#  17]+0.001*[#  23]+
    |psi|^2 = 0.921
==== e(  29) =    22.44432 eV ==== 
     psi = 0.561*[#   4]+0.055*[#  15]+0.055*[#  33]+0.048*[#  16]+0.041*[#  34]+
          +0.034*[#  12]+0.032*[#  11]+0.026*[#  29]+0.024*[#  30]+0.017*[#  14]+
          +0.013*[#  32]+0.011*[#  28]+0.009*[#   2]+0.001*[#  25]+0.001*[#  26]+
    |psi|^2 = 0.934
==== e(  30) =    23.48377 eV ==== 
     psi = 0.612*[#   3]+0.050*[#  32]+0.046*[#  14]+0.041*[#  31]+0.035*[#  13]+
          +0.026*[#  30]+0.025*[#  29]+0.024*[#  12]+0.023*[#  11]+0.013*[#  33]+
          +0.012*[#  15]+0.009*[#   1]+0.006*[#  27]+0.004*[#  22]+0.003*[#  19]+
          +0.002*[#  24]+0.002*[#  21]+0.001*[#  20]+0.001*[#  17]+
    |psi|^2 = 0.939

 k =  -0.1013457610 -0.1013457610  0.3040372829
==== e(   1) =   -75.58162 eV ==== 
     psi = 0.982*[#   2]+0.005*[#   4]+0.003*[#  34]+0.002*[#  29]+0.002*[#  16]+
          +0.002*[#  33]+0.001*[#  11]+0.001*[#  32]+
    |psi|^2 = 1.000
==== e(   2) =   -71.84341 eV ==== 
     psi = 0.982*[#   1]+0.004*[#   3]+0.003*[#  31]+0.002*[#  30]+0.002*[#  13]+
          +0.002*[#  32]+0.001*[#  12]+0.001*[#  33]+
    |psi|^2 = 1.000
==== e(   3) =   -42.02975 eV ==== 
     psi = 0.800*[#   5]+0.184*[#   8]+0.005*[#  16]+0.003*[#  15]+0.001*[#   6]+
          +0.001*[#   9]+0.001*[#  10]+
    |psi|^2 = 0.998
==== e(   4) =   -41.53527 eV ==== 
     psi = 0.541*[#   6]+0.444*[#   9]+0.003*[#  16]+0.002*[#   5]+0.002*[#  14]+
          +0.002*[#  11]+0.002*[#  33]+0.001*[#  10]+
    |psi|^2 = 0.998
==== e(   5) =   -40.86531 eV ==== 
     psi = 0.986*[#  10]+0.003*[#  11]+0.002*[#  15]+0.002*[#  14]+0.001*[#  12]+
          +0.001*[#   5]+
    |psi|^2 = 0.999
==== e(   6) =   -38.11971 eV ==== 
     psi = 0.540*[#   9]+0.443*[#   6]+0.005*[#  13]+0.003*[#   8]+0.002*[#   7]+
          +0.002*[#  11]+0.002*[#  14]+
    |psi|^2 = 0.998
==== e(   7) =   -37.63860 eV ==== 
     psi = 0.796*[#   8]+0.183*[#   5]+0.004*[#   7]+0.003*[#  12]+0.003*[#  13]+
          +0.002*[#   6]+0.002*[#   9]+0.001*[#  32]+
    |psi|^2 = 0.998
==== e(   8) =   -37.25875 eV ==== 
     psi = 0.981*[#   7]+0.004*[#   8]+0.003*[#  12]+0.002*[#  14]+0.002*[#  15]+
          +0.001*[#  11]+0.001*[#   5]+0.001*[#   6]+0.001*[#   9]+
    |psi|^2 = 0.998
==== e(   9) =    -5.22025 eV ==== 
     psi = 0.789*[#  28]+0.072*[#  16]+0.049*[#  11]+0.032*[#  15]+0.024*[#  14]+
          +0.016*[#  12]+0.006*[#  24]+0.004*[#  19]+0.002*[#  10]+0.001*[#   5]+
          +0.001*[#   9]+
    |psi|^2 = 1.000
==== e(  10) =    -4.59796 eV ==== 
     psi = 0.788*[#  27]+0.073*[#  13]+0.049*[#  12]+0.032*[#  14]+0.024*[#  15]+
          +0.016*[#  11]+0.005*[#  23]+0.004*[#  18]+0.003*[#   7]+0.002*[#   6]+
          +0.001*[#   8]+
    |psi|^2 = 0.999
==== e(  11) =     5.62495 eV ==== 
     psi = 0.210*[#  34]+0.173*[#   4]+0.140*[#  29]+0.111*[#  33]+0.070*[#  32]+
          +0.056*[#  30]+0.047*[#  25]+0.039*[#  26]+0.036*[#  18]+0.032*[#  17]+
          +0.024*[#  23]+0.012*[#  20]+0.011*[#  15]+0.008*[#  16]+0.008*[#  22]+
          +0.006*[#  11]+0.005*[#  12]+0.004*[#   2]+0.003*[#  14]+0.002*[#  24]+
          +0.001*[#  19]+
    |psi|^2 = 1.000
==== e(  12) =     6.45428 eV ==== 
     psi = 0.225*[#  31]+0.185*[#   3]+0.152*[#  30]+0.126*[#  32]+0.075*[#  33]+
          +0.063*[#  29]+0.031*[#  22]+0.025*[#  21]+0.023*[#  19]+0.020*[#  20]+
          +0.015*[#  24]+0.012*[#  14]+0.009*[#  13]+0.008*[#  17]+0.006*[#  11]+
          +0.006*[#  12]+0.005*[#   1]+0.005*[#  25]+0.003*[#  15]+0.001*[#  23]+
    |psi|^2 = 0.999
==== e(  13) =     7.42559 eV ==== 
     psi = 0.240*[#  33]+0.211*[#  24]+0.148*[#  19]+0.120*[#  30]+0.112*[#  34]+
          +0.038*[#  17]+0.024*[#  29]+0.019*[#  18]+0.017*[#  15]+0.014*[#  25]+
          +0.013*[#  23]+0.012*[#  32]+0.009*[#  22]+0.009*[#  12]+0.005*[#  26]+
          +0.004*[#  20]+0.003*[#  16]+0.001*[#  11]+
    |psi|^2 = 0.999
==== e(  14) =     7.45628 eV ==== 
     psi = 0.234*[#  26]+0.203*[#  34]+0.190*[#  29]+0.167*[#  17]+0.095*[#  32]+
          +0.040*[#  22]+0.024*[#  25]+0.011*[#  18]+0.007*[#  23]+0.006*[#  20]+
          +0.005*[#  33]+0.005*[#  24]+0.004*[#  19]+0.003*[#  30]+0.002*[#  11]+
          +0.002*[#  16]+0.001*[#  14]+
    |psi|^2 = 0.999
==== e(  15) =     8.75515 eV ==== 
     psi = 0.318*[#  32]+0.162*[#  29]+0.124*[#  23]+0.099*[#  31]+0.091*[#  18]+
          +0.068*[#  30]+0.034*[#  33]+0.023*[#  14]+0.015*[#  21]+0.011*[#  11]+
          +0.012*[#  22]+0.011*[#  20]+0.009*[#  19]+0.006*[#  24]+0.003*[#  17]+
          +0.003*[#  13]+0.003*[#  25]+0.002*[#  12]+
    |psi|^2 = 0.997
==== e(  16) =     8.89314 eV ==== 
     psi = 0.342*[#  31]+0.229*[#  30]+0.134*[#  21]+0.114*[#  20]+0.111*[#  33]+
          +0.026*[#  25]+0.013*[#  22]+0.010*[#  19]+0.007*[#  24]+0.004*[#  13]+
          +0.003*[#  17]+0.003*[#  12]+0.001*[#  15]+
    |psi|^2 = 0.997
==== e(  17) =    10.71935 eV ==== 
     psi = 0.307*[#  26]+0.233*[#  17]+0.099*[#  18]+0.079*[#  25]+0.073*[#  24]+
          +0.065*[#  23]+0.055*[#  22]+0.053*[#  19]+0.021*[#  20]+0.004*[#  34]+
          +0.004*[#  28]+0.003*[#  33]+0.001*[#  29]+0.001*[#  30]+
    |psi|^2 = 1.000
==== e(  18) =    10.76687 eV ==== 
     psi = 0.361*[#  25]+0.286*[#  18]+0.188*[#  23]+0.093*[#  20]+0.043*[#  17]+
          +0.013*[#  26]+0.010*[#  22]+0.002*[#  29]+0.002*[#  32]+
    |psi|^2 = 1.000
==== e(  19) =    11.32790 eV ==== 
     psi = 0.248*[#  25]+0.141*[#  18]+0.129*[#  26]+0.097*[#  17]+0.089*[#  23]+
          +0.068*[#  20]+0.058*[#  34]+0.043*[#  33]+0.033*[#   4]+0.032*[#  29]+
          +0.020*[#  22]+0.020*[#  30]+0.017*[#  32]+0.002*[#  24]+0.001*[#  19]+
    |psi|^2 = 0.999
==== e(  20) =    13.03821 eV ==== 
     psi = 0.244*[#  19]+0.239*[#  24]+0.190*[#  33]+0.087*[#  30]+0.072*[#  34]+
          +0.039*[#  29]+0.023*[#  32]+0.020*[#  28]+0.014*[#  15]+0.013*[#  17]+
          +0.011*[#  26]+0.009*[#  25]+0.009*[#  18]+0.008*[#  12]+0.004*[#  23]+
          +0.003*[#  20]+0.002*[#   4]+0.002*[#  16]+0.002*[#  22]+0.001*[#  11]+
    |psi|^2 = 0.994
==== e(  21) =    13.51177 eV ==== 
     psi = 0.257*[#  26]+0.232*[#  34]+0.213*[#  17]+0.159*[#  29]+0.089*[#  32]+
          +0.020*[#  22]+0.005*[#  25]+0.004*[#  20]+0.004*[#  23]+0.004*[#  18]+
          +0.003*[#  16]+0.002*[#  11]+0.001*[#  14]+
    |psi|^2 = 0.994
==== e(  22) =    13.84253 eV ==== 
     psi = 0.334*[#  21]+0.265*[#  20]+0.078*[#  25]+0.073*[#  22]+0.070*[#  19]+
          +0.065*[#  24]+0.041*[#  23]+0.025*[#  18]+0.012*[#  17]+0.010*[#  31]+
          +0.005*[#  29]+0.004*[#  27]+0.004*[#  33]+0.003*[#  32]+0.002*[#  13]+
          +0.002*[#  30]+0.001*[#  12]+0.001*[#  15]+
    |psi|^2 = 0.998
==== e(  23) =    13.92812 eV ==== 
     psi = 0.339*[#  22]+0.291*[#  19]+0.255*[#  24]+0.058*[#  17]+0.029*[#  20]+
          +0.009*[#  30]+0.008*[#  25]+0.002*[#  21]+0.002*[#  34]+0.002*[#  31]+
          +0.001*[#  33]+
    |psi|^2 = 0.999
==== e(  24) =    14.16804 eV ==== 
     psi = 0.352*[#  22]+0.126*[#  19]+0.108*[#  21]+0.101*[#  24]+0.075*[#  20]+
          +0.072*[#  17]+0.042*[#  31]+0.031*[#  32]+0.022*[#  29]+0.022*[#  30]+
          +0.020*[#  25]+0.011*[#   3]+0.009*[#  33]+0.002*[#  23]+0.001*[#  18]+
    |psi|^2 = 0.998
==== e(  25) =    15.81764 eV ==== 
     psi = 0.421*[#  23]+0.266*[#  18]+0.100*[#  32]+0.051*[#  29]+0.038*[#  31]+
          +0.025*[#  27]+0.022*[#  30]+0.012*[#  14]+0.011*[#  33]+0.008*[#  20]+
          +0.007*[#  21]+0.007*[#  22]+0.006*[#  11]+0.005*[#  19]+0.004*[#  13]+
          +0.004*[#  24]+0.002*[#  12]+0.002*[#   3]+0.002*[#  25]+0.002*[#  17]+
          +0.001*[#  15]+
    |psi|^2 = 0.997
==== e(  26) =    16.27243 eV ==== 
     psi = 0.368*[#  21]+0.261*[#  20]+0.140*[#  31]+0.101*[#  30]+0.068*[#  25]+
          +0.049*[#  33]+0.003*[#  22]+0.002*[#  19]+0.002*[#  13]+0.002*[#  24]+
    |psi|^2 = 0.998
==== e(  27) =    19.95555 eV ==== 
     psi = 0.233*[#  16]+0.162*[#  28]+0.158*[#  11]+0.143*[#  15]+0.078*[#  14]+
          +0.073*[#  12]+0.018*[#  34]+0.012*[#  33]+0.012*[#  29]+0.006*[#  30]+
          +0.006*[#  32]+0.004*[#  24]+0.003*[#   4]+0.002*[#  19]+0.002*[#  10]+
          +0.002*[#  26]+0.001*[#  17]+
    |psi|^2 = 0.919
==== e(  28) =    20.63077 eV ==== 
     psi = 0.227*[#  13]+0.156*[#  27]+0.155*[#  12]+0.138*[#  14]+0.076*[#  15]+
          +0.070*[#  11]+0.018*[#  31]+0.015*[#  32]+0.012*[#  30]+0.010*[#  23]+
          +0.007*[#  29]+0.007*[#  18]+0.006*[#  33]+0.004*[#  21]+0.003*[#  20]+
          +0.002*[#   7]+0.002*[#   3]+0.002*[#  22]+0.001*[#   6]+0.001*[#  19]+
    |psi|^2 = 0.916
==== e(  29) =    22.66288 eV ==== 
     psi = 0.689*[#   4]+0.073*[#  34]+0.049*[#  33]+0.048*[#  29]+0.031*[#  15]+
          +0.024*[#  32]+0.024*[#  30]+0.016*[#  12]+0.009*[#   2]+0.002*[#  16]+
          +0.001*[#  11]+
    |psi|^2 = 0.969
==== e(  30) =    23.70646 eV ==== 
     psi = 0.688*[#   3]+0.069*[#  31]+0.045*[#  30]+0.045*[#  32]+0.032*[#  14]+
          +0.023*[#  33]+0.022*[#  29]+0.016*[#  11]+0.008*[#   1]+0.003*[#  13]+
          +0.002*[#  22]+0.002*[#  12]+0.002*[#  19]+0.001*[#  21]+0.001*[#  24]+
          +0.001*[#  15]+
    |psi|^2 = 0.965

Lowdin Charges: 

     Atom #   1: total charge =  15.4884, s, p, d, f =   2.2587  6.7814  6.4483
     Atom #   2: total charge =   6.4688, s, p, d, f =   1.6395  4.8293  0.0000
     Spilling Parameter:   0.0019

     PROJWFC      :     8.14s CPU         8.74s WALL


   This run was terminated on:  19:42:36  15Aug2017            

=------------------------------------------------------------------------------=
   JOB DONE.
=------------------------------------------------------------------------------=
