
     Program PWSCF v.6.1 (svn rev. 13369) starts on 15Aug2017 at 19:42:37 

     This program is part of the open-source Quantum ESPRESSO suite
     for quantum simulation of materials; please cite
         "P. Giannozzi et al., J. Phys.:Condens. Matter 21 395502 (2009);
          URL http://www.quantum-espresso.org", 
     in publications or presentations arising from this work. More details at
     http://www.quantum-espresso.org/quote

     Parallel version (MPI), running on     8 processors
     R & G space division:  proc/nbgrp/npool/nimage =       8
     Waiting for input...
     Reading input from standard input

     Current dimensions of program PWSCF are:
     Max number of different atomic species (ntypx) = 10
     Max number of k-points (npk) =  40000
     Max angular momentum in pseudopotentials (lmaxx) =  3

     Atomic positions and unit cell read from directory:
     ./outdir/pwscf.save/

               file Fe.rel-pz-spn-kjpaw_psl.0.2.1.UPF: wavefunction(s)  3D renormalized
               file O.rel-pz-n-kjpaw_psl.0.1.UPF: wavefunction(s)  2P 2P renormalized

     Subspace diagonalization in iterative solution of the eigenvalue problem:
     a serial algorithm will be used


     Parallelization info
     --------------------
     sticks:   dense  smooth     PW     G-vecs:    dense   smooth      PW
     Min          33      33     11                  371      371      70
     Max          35      35     12                  372      372      71
     Sum         271     271     91                 2975     2975     561



     bravais-lattice index     =            0
     lattice parameter (alat)  =       1.8900  a.u.
     unit-cell volume          =     135.7822 (a.u.)^3
     number of atoms/cell      =            2
     number of atomic types    =            2
     number of electrons       =        22.00
     number of Kohn-Sham states=           30
     kinetic-energy cutoff     =      30.0000  Ry
     charge density cutoff     =     120.0000  Ry
     Exchange-correlation      =  SLA  PZ   NOGX NOGC ( 1  1  0  0 0 0)
     Noncollinear calculation with spin-orbit


     celldm(1)=   1.890000  celldm(2)=   0.000000  celldm(3)=   0.000000
     celldm(4)=   0.000000  celldm(5)=   0.000000  celldm(6)=   0.000000

     crystal axes: (cart. coord. in units of alat)
               a(1) = (   2.158452   2.158452   0.000000 )  
               a(2) = (   2.158452   0.000000   2.158452 )  
               a(3) = (   0.000000   2.158452   2.158452 )  

     reciprocal axes: (cart. coord. in units 2 pi/alat)
               b(1) = (  0.231647  0.231647 -0.231647 )  
               b(2) = (  0.231647 -0.231647  0.231647 )  
               b(3) = ( -0.231647  0.231647  0.231647 )  


     PseudoPot. # 1 for Fe read from file:
     ./Fe.rel-pz-spn-kjpaw_psl.0.2.1.UPF
     MD5 check sum: 9a4fddefc36bb44b7d51970d02771829
     Pseudo is Projector augmented-wave + core cor, Zval = 16.0
     Generated using "atomic" code by A. Dal Corso  v.5.0.99 svn rev. 10869
     Shape of augmentation charge: PSQ
     Using radial grid of 1191 points, 10 beta functions with: 
                l(1) =   0
                l(2) =   0
                l(3) =   1
                l(4) =   1
                l(5) =   1
                l(6) =   1
                l(7) =   2
                l(8) =   2
                l(9) =   2
               l(10) =   2
     Q(r) pseudized with 0 coefficients 


     PseudoPot. # 2 for  O read from file:
     ./O.rel-pz-n-kjpaw_psl.0.1.UPF
     MD5 check sum: 2a679c24114a0cf947f0ee4744e9cd3f
     Pseudo is Projector augmented-wave + core cor, Zval =  6.0
     Generated using "atomic" code by A. Dal Corso  v.5.0.99 svn rev. 10869
     Shape of augmentation charge: BESSEL
     Using radial grid of 1095 points,  6 beta functions with: 
                l(1) =   0
                l(2) =   0
                l(3) =   1
                l(4) =   1
                l(5) =   1
                l(6) =   1
     Q(r) pseudized with 0 coefficients 


     atomic species   valence    mass     pseudopotential
        Fe            16.00     1.00000     Fe( 1.00)
        O              6.00     1.00000      O( 1.00)

     16 Sym. Ops., with inversion, found


                                    s                        frac. trans.

      isym =  1     identity                                     

 Time Reversal            0
 cryst.   s( 1) = (     1          0          0      )
                  (     0          1          0      )
                  (     0          0          1      )

 cart.    s( 1) = (  1.0000000  0.0000000  0.0000000 )
                  (  0.0000000  1.0000000  0.0000000 )
                  (  0.0000000  0.0000000  1.0000000 )


      isym =  2     180 deg rotation - cart. axis [0,0,1]        

 Time Reversal            0
 cryst.   s( 2) = (    -1          0          0      )
                  (    -1          0          1      )
                  (    -1          1          0      )

 cart.    s( 2) = ( -1.0000000  0.0000000  0.0000000 )
                  (  0.0000000 -1.0000000  0.0000000 )
                  (  0.0000000  0.0000000  1.0000000 )


      isym =  3     180 deg rotation - cart. axis [0,1,0]        

 Time Reversal            1
 cryst.   s( 3) = (     0         -1          1      )
                  (     0         -1          0      )
                  (     1         -1          0      )

 cart.    s( 3) = ( -1.0000000  0.0000000  0.0000000 )
                  (  0.0000000  1.0000000  0.0000000 )
                  (  0.0000000  0.0000000 -1.0000000 )


      isym =  4     180 deg rotation - cart. axis [1,0,0]        

 Time Reversal            1
 cryst.   s( 4) = (     0          1         -1      )
                  (     1          0         -1      )
                  (     0          0         -1      )

 cart.    s( 4) = (  1.0000000  0.0000000  0.0000000 )
                  (  0.0000000 -1.0000000  0.0000000 )
                  (  0.0000000  0.0000000 -1.0000000 )


      isym =  5     180 deg rotation - cart. axis [1,1,0]        

 Time Reversal            1
 cryst.   s( 5) = (     1          0          0      )
                  (     1         -1          0      )
                  (     1          0         -1      )

 cart.    s( 5) = (  0.0000000  1.0000000  0.0000000 )
                  (  1.0000000  0.0000000  0.0000000 )
                  (  0.0000000  0.0000000 -1.0000000 )


      isym =  6     180 deg rotation - cart. axis [1,-1,0]       

 Time Reversal            1
 cryst.   s( 6) = (    -1          0          0      )
                  (     0          0         -1      )
                  (     0         -1          0      )

 cart.    s( 6) = (  0.0000000 -1.0000000  0.0000000 )
                  ( -1.0000000  0.0000000  0.0000000 )
                  (  0.0000000  0.0000000 -1.0000000 )


      isym =  7      90 deg rotation - cart. axis [0,0,-1]       

 Time Reversal            0
 cryst.   s( 7) = (     0          1         -1      )
                  (    -1          1          0      )
                  (     0          1          0      )

 cart.    s( 7) = (  0.0000000  1.0000000  0.0000000 )
                  ( -1.0000000  0.0000000  0.0000000 )
                  (  0.0000000  0.0000000  1.0000000 )


      isym =  8      90 deg rotation - cart. axis [0,0,1]        

 Time Reversal            0
 cryst.   s( 8) = (     0         -1          1      )
                  (     0          0          1      )
                  (    -1          0          1      )

 cart.    s( 8) = (  0.0000000 -1.0000000  0.0000000 )
                  (  1.0000000  0.0000000  0.0000000 )
                  (  0.0000000  0.0000000  1.0000000 )


      isym =  9     inversion                                    

 Time Reversal            0
 cryst.   s( 9) = (    -1          0          0      )
                  (     0         -1          0      )
                  (     0          0         -1      )

 cart.    s( 9) = ( -1.0000000  0.0000000  0.0000000 )
                  (  0.0000000 -1.0000000  0.0000000 )
                  (  0.0000000  0.0000000 -1.0000000 )


      isym = 10     inv. 180 deg rotation - cart. axis [0,0,1]   

 Time Reversal            0
 cryst.   s(10) = (     1          0          0      )
                  (     1          0         -1      )
                  (     1         -1          0      )

 cart.    s(10) = (  1.0000000  0.0000000  0.0000000 )
                  (  0.0000000  1.0000000  0.0000000 )
                  (  0.0000000  0.0000000 -1.0000000 )


      isym = 11     inv. 180 deg rotation - cart. axis [0,1,0]   

 Time Reversal            1
 cryst.   s(11) = (     0          1         -1      )
                  (     0          1          0      )
                  (    -1          1          0      )

 cart.    s(11) = (  1.0000000  0.0000000  0.0000000 )
                  (  0.0000000 -1.0000000  0.0000000 )
                  (  0.0000000  0.0000000  1.0000000 )


      isym = 12     inv. 180 deg rotation - cart. axis [1,0,0]   

 Time Reversal            1
 cryst.   s(12) = (     0         -1          1      )
                  (    -1          0          1      )
                  (     0          0          1      )

 cart.    s(12) = ( -1.0000000  0.0000000  0.0000000 )
                  (  0.0000000  1.0000000  0.0000000 )
                  (  0.0000000  0.0000000  1.0000000 )


      isym = 13     inv. 180 deg rotation - cart. axis [1,1,0]   

 Time Reversal            1
 cryst.   s(13) = (    -1          0          0      )
                  (    -1          1          0      )
                  (    -1          0          1      )

 cart.    s(13) = (  0.0000000 -1.0000000  0.0000000 )
                  ( -1.0000000  0.0000000  0.0000000 )
                  (  0.0000000  0.0000000  1.0000000 )


      isym = 14     inv. 180 deg rotation - cart. axis [1,-1,0]  

 Time Reversal            1
 cryst.   s(14) = (     1          0          0      )
                  (     0          0          1      )
                  (     0          1          0      )

 cart.    s(14) = (  0.0000000  1.0000000  0.0000000 )
                  (  1.0000000  0.0000000  0.0000000 )
                  (  0.0000000  0.0000000  1.0000000 )


      isym = 15     inv.  90 deg rotation - cart. axis [0,0,-1]  

 Time Reversal            0
 cryst.   s(15) = (     0         -1          1      )
                  (     1         -1          0      )
                  (     0         -1          0      )

 cart.    s(15) = (  0.0000000 -1.0000000  0.0000000 )
                  (  1.0000000  0.0000000  0.0000000 )
                  (  0.0000000  0.0000000 -1.0000000 )


      isym = 16     inv.  90 deg rotation - cart. axis [0,0,1]   

 Time Reversal            0
 cryst.   s(16) = (     0          1         -1      )
                  (     0          0         -1      )
                  (     1          0         -1      )

 cart.    s(16) = (  0.0000000  1.0000000  0.0000000 )
                  ( -1.0000000  0.0000000  0.0000000 )
                  (  0.0000000  0.0000000 -1.0000000 )


   Cartesian axes

     site n.     atom                  positions (alat units)
         1           Fe  tau(   1) = (   0.0000000   0.0000000   0.0000000  )
         2           O   tau(   2) = (   0.0000000   0.0000000   2.1584524  )

   Crystallographic axes

     site n.     atom                  positions (cryst. coord.)
         1           Fe  tau(   1) = (  0.0000000  0.0000000  0.0000000  )
         2           O   tau(   2) = ( -0.5000000  0.5000000  0.5000000  )

     number of k points=    89  gaussian smearing, width (Ry)=  0.0200
                       cart. coord. in units 2pi/alat
        k(    1) = (   0.0000000   0.0000000   0.0000000), wk =   0.0112360
        k(    2) = (   0.0154432   0.0000000   0.0000000), wk =   0.0112360
        k(    3) = (   0.0308863   0.0000000   0.0000000), wk =   0.0112360
        k(    4) = (   0.0463295   0.0000000   0.0000000), wk =   0.0112360
        k(    5) = (   0.0617727   0.0000000   0.0000000), wk =   0.0112360
        k(    6) = (   0.0772158   0.0000000   0.0000000), wk =   0.0112360
        k(    7) = (   0.0926590   0.0000000   0.0000000), wk =   0.0112360
        k(    8) = (   0.1081021   0.0000000   0.0000000), wk =   0.0112360
        k(    9) = (   0.1235453   0.0000000   0.0000000), wk =   0.0112360
        k(   10) = (   0.1389885   0.0000000   0.0000000), wk =   0.0112360
        k(   11) = (   0.1544316   0.0000000   0.0000000), wk =   0.0112360
        k(   12) = (   0.1698748   0.0000000   0.0000000), wk =   0.0112360
        k(   13) = (   0.1853180   0.0000000   0.0000000), wk =   0.0112360
        k(   14) = (   0.2007611   0.0000000   0.0000000), wk =   0.0112360
        k(   15) = (   0.2162043   0.0000000   0.0000000), wk =   0.0112360
        k(   16) = (   0.2316475   0.0000000   0.0000000), wk =   0.0112360
        k(   17) = (   0.2316475   0.0000000   0.0165462), wk =   0.0112360
        k(   18) = (   0.2316475   0.0000000   0.0330925), wk =   0.0112360
        k(   19) = (   0.2316475   0.0000000   0.0496387), wk =   0.0112360
        k(   20) = (   0.2316475   0.0000000   0.0661850), wk =   0.0112360
        k(   21) = (   0.2316475   0.0000000   0.0827312), wk =   0.0112360
        k(   22) = (   0.2316475  -0.0000000   0.0992775), wk =   0.0112360
        k(   23) = (   0.2316475  -0.0000000   0.1158237), wk =   0.0112360
        k(   24) = (   0.2200651   0.0000000   0.1274061), wk =   0.0112360
        k(   25) = (   0.2084827   0.0000000   0.1389885), wk =   0.0112360
        k(   26) = (   0.1969003   0.0000000   0.1505708), wk =   0.0112360
        k(   27) = (   0.1853180   0.0000000   0.1621532), wk =   0.0112360
        k(   28) = (   0.1737356   0.0000000   0.1737356), wk =   0.0112360
        k(   29) = (   0.1621532   0.0000000   0.1621532), wk =   0.0112360
        k(   30) = (   0.1505708   0.0000000   0.1505708), wk =   0.0112360
        k(   31) = (   0.1389885   0.0000000   0.1389885), wk =   0.0112360
        k(   32) = (   0.1274061   0.0000000   0.1274061), wk =   0.0112360
        k(   33) = (   0.1158237   0.0000000   0.1158237), wk =   0.0112360
        k(   34) = (   0.1042414   0.0000000   0.1042414), wk =   0.0112360
        k(   35) = (   0.0926590   0.0000000   0.0926590), wk =   0.0112360
        k(   36) = (   0.0810766   0.0000000   0.0810766), wk =   0.0112360
        k(   37) = (   0.0694942   0.0000000   0.0694942), wk =   0.0112360
        k(   38) = (   0.0579119   0.0000000   0.0579119), wk =   0.0112360
        k(   39) = (   0.0463295   0.0000000   0.0463295), wk =   0.0112360
        k(   40) = (   0.0347471   0.0000000   0.0347471), wk =   0.0112360
        k(   41) = (   0.0231647   0.0000000   0.0231647), wk =   0.0112360
        k(   42) = (   0.0115824   0.0000000   0.0115824), wk =   0.0112360
        k(   43) = (   0.0000000   0.0000000   0.0000000), wk =   0.0112360
        k(   44) = (   0.0089095   0.0089095   0.0089095), wk =   0.0112360
        k(   45) = (   0.0178190   0.0178190   0.0178190), wk =   0.0112360
        k(   46) = (   0.0267286   0.0267286   0.0267286), wk =   0.0112360
        k(   47) = (   0.0356381   0.0356381   0.0356381), wk =   0.0112360
        k(   48) = (   0.0445476   0.0445476   0.0445476), wk =   0.0112360
        k(   49) = (   0.0534571   0.0534571   0.0534571), wk =   0.0112360
        k(   50) = (   0.0623666   0.0623666   0.0623666), wk =   0.0112360
        k(   51) = (   0.0712761   0.0712761   0.0712761), wk =   0.0112360
        k(   52) = (   0.0801857   0.0801857   0.0801857), wk =   0.0112360
        k(   53) = (   0.0890952   0.0890952   0.0890952), wk =   0.0112360
        k(   54) = (   0.0980047   0.0980047   0.0980047), wk =   0.0112360
        k(   55) = (   0.1069142   0.1069142   0.1069142), wk =   0.0112360
        k(   56) = (   0.1158237   0.1158237   0.1158237), wk =   0.0112360
        k(   57) = (   0.1286930   0.1093891   0.1093891), wk =   0.0112360
        k(   58) = (   0.1415623   0.1029544   0.1029544), wk =   0.0112360
        k(   59) = (   0.1544316   0.0965198   0.0965198), wk =   0.0112360
        k(   60) = (   0.1673009   0.0900851   0.0900851), wk =   0.0112360
        k(   61) = (   0.1801702   0.0836505   0.0836505), wk =   0.0112360
        k(   62) = (   0.1930395   0.0772158   0.0772158), wk =   0.0112360
        k(   63) = (   0.2059088   0.0707812   0.0707812), wk =   0.0112360
        k(   64) = (   0.2187782   0.0643465   0.0643465), wk =   0.0112360
        k(   65) = (   0.2316475   0.0579119   0.0579119), wk =   0.0112360
        k(   66) = (   0.2316475   0.0463295   0.0694942), wk =   0.0112360
        k(   67) = (   0.2316475   0.0347471   0.0810766), wk =   0.0112360
        k(   68) = (   0.2316475   0.0231647   0.0926590), wk =   0.0112360
        k(   69) = (   0.2316475   0.0115824   0.1042414), wk =   0.0112360
        k(   70) = (   0.2316475  -0.0000000   0.1158237), wk =   0.0112360
        k(   71) = (   0.2200651   0.0115824   0.1158237), wk =   0.0112360
        k(   72) = (   0.2084827   0.0231647   0.1158237), wk =   0.0112360
        k(   73) = (   0.1969003   0.0347471   0.1158237), wk =   0.0112360
        k(   74) = (   0.1853180   0.0463295   0.1158237), wk =   0.0112360
        k(   75) = (   0.1737356   0.0579119   0.1158237), wk =   0.0112360
        k(   76) = (   0.1621532   0.0694942   0.1158237), wk =   0.0112360
        k(   77) = (   0.1505708   0.0810766   0.1158237), wk =   0.0112360
        k(   78) = (   0.1389885   0.0926590   0.1158237), wk =   0.0112360
        k(   79) = (   0.1274061   0.1042414   0.1158237), wk =   0.0112360
        k(   80) = (   0.1158237   0.1158237   0.1158237), wk =   0.0112360
        k(   81) = (   0.1222584   0.1029544   0.1222584), wk =   0.0112360
        k(   82) = (   0.1286930   0.0900851   0.1286930), wk =   0.0112360
        k(   83) = (   0.1351277   0.0772158   0.1351277), wk =   0.0112360
        k(   84) = (   0.1415623   0.0643465   0.1415623), wk =   0.0112360
        k(   85) = (   0.1479970   0.0514772   0.1479970), wk =   0.0112360
        k(   86) = (   0.1544316   0.0386079   0.1544316), wk =   0.0112360
        k(   87) = (   0.1608663   0.0257386   0.1608663), wk =   0.0112360
        k(   88) = (   0.1673009   0.0128693   0.1673009), wk =   0.0112360
        k(   89) = (   0.1737356   0.0000000   0.1737356), wk =   0.0112360

                       cryst. coord.
        k(    1) = (   0.0000000   0.0000000   0.0000000), wk =   0.0112360
        k(    2) = (   0.0333333   0.0333333   0.0000000), wk =   0.0112360
        k(    3) = (   0.0666667   0.0666667   0.0000000), wk =   0.0112360
        k(    4) = (   0.1000000   0.1000000   0.0000000), wk =   0.0112360
        k(    5) = (   0.1333333   0.1333333   0.0000000), wk =   0.0112360
        k(    6) = (   0.1666667   0.1666667   0.0000000), wk =   0.0112360
        k(    7) = (   0.2000000   0.2000000   0.0000000), wk =   0.0112360
        k(    8) = (   0.2333333   0.2333333   0.0000000), wk =   0.0112360
        k(    9) = (   0.2666667   0.2666667   0.0000000), wk =   0.0112360
        k(   10) = (   0.3000000   0.3000000   0.0000000), wk =   0.0112360
        k(   11) = (   0.3333333   0.3333333   0.0000000), wk =   0.0112360
        k(   12) = (   0.3666667   0.3666667   0.0000000), wk =   0.0112360
        k(   13) = (   0.4000000   0.4000000   0.0000000), wk =   0.0112360
        k(   14) = (   0.4333333   0.4333333   0.0000000), wk =   0.0112360
        k(   15) = (   0.4666667   0.4666667   0.0000000), wk =   0.0112360
        k(   16) = (   0.5000000   0.5000000   0.0000000), wk =   0.0112360
        k(   17) = (   0.5000000   0.5357143   0.0357143), wk =   0.0112360
        k(   18) = (   0.5000000   0.5714286   0.0714286), wk =   0.0112360
        k(   19) = (   0.5000000   0.6071429   0.1071429), wk =   0.0112360
        k(   20) = (   0.5000000   0.6428571   0.1428571), wk =   0.0112360
        k(   21) = (   0.5000000   0.6785714   0.1785714), wk =   0.0112360
        k(   22) = (   0.5000000   0.7142857   0.2142857), wk =   0.0112360
        k(   23) = (   0.5000000   0.7500000   0.2500000), wk =   0.0112360
        k(   24) = (   0.4750000   0.7500000   0.2750000), wk =   0.0112360
        k(   25) = (   0.4500000   0.7500000   0.3000000), wk =   0.0112360
        k(   26) = (   0.4250000   0.7500000   0.3250000), wk =   0.0112360
        k(   27) = (   0.4000000   0.7500000   0.3500000), wk =   0.0112360
        k(   28) = (   0.3750000   0.7500000   0.3750000), wk =   0.0112360
        k(   29) = (   0.3500000   0.7000000   0.3500000), wk =   0.0112360
        k(   30) = (   0.3250000   0.6500000   0.3250000), wk =   0.0112360
        k(   31) = (   0.3000000   0.6000000   0.3000000), wk =   0.0112360
        k(   32) = (   0.2750000   0.5500000   0.2750000), wk =   0.0112360
        k(   33) = (   0.2500000   0.5000000   0.2500000), wk =   0.0112360
        k(   34) = (   0.2250000   0.4500000   0.2250000), wk =   0.0112360
        k(   35) = (   0.2000000   0.4000000   0.2000000), wk =   0.0112360
        k(   36) = (   0.1750000   0.3500000   0.1750000), wk =   0.0112360
        k(   37) = (   0.1500000   0.3000000   0.1500000), wk =   0.0112360
        k(   38) = (   0.1250000   0.2500000   0.1250000), wk =   0.0112360
        k(   39) = (   0.1000000   0.2000000   0.1000000), wk =   0.0112360
        k(   40) = (   0.0750000   0.1500000   0.0750000), wk =   0.0112360
        k(   41) = (   0.0500000   0.1000000   0.0500000), wk =   0.0112360
        k(   42) = (   0.0250000   0.0500000   0.0250000), wk =   0.0112360
        k(   43) = (   0.0000000   0.0000000   0.0000000), wk =   0.0112360
        k(   44) = (   0.0384615   0.0384615   0.0384615), wk =   0.0112360
        k(   45) = (   0.0769231   0.0769231   0.0769231), wk =   0.0112360
        k(   46) = (   0.1153846   0.1153846   0.1153846), wk =   0.0112360
        k(   47) = (   0.1538462   0.1538462   0.1538462), wk =   0.0112360
        k(   48) = (   0.1923077   0.1923077   0.1923077), wk =   0.0112360
        k(   49) = (   0.2307692   0.2307692   0.2307692), wk =   0.0112360
        k(   50) = (   0.2692308   0.2692308   0.2692308), wk =   0.0112360
        k(   51) = (   0.3076923   0.3076923   0.3076923), wk =   0.0112360
        k(   52) = (   0.3461538   0.3461538   0.3461538), wk =   0.0112360
        k(   53) = (   0.3846154   0.3846154   0.3846154), wk =   0.0112360
        k(   54) = (   0.4230769   0.4230769   0.4230769), wk =   0.0112360
        k(   55) = (   0.4615385   0.4615385   0.4615385), wk =   0.0112360
        k(   56) = (   0.5000000   0.5000000   0.5000000), wk =   0.0112360
        k(   57) = (   0.5138889   0.5138889   0.4722222), wk =   0.0112360
        k(   58) = (   0.5277778   0.5277778   0.4444444), wk =   0.0112360
        k(   59) = (   0.5416667   0.5416667   0.4166667), wk =   0.0112360
        k(   60) = (   0.5555556   0.5555556   0.3888889), wk =   0.0112360
        k(   61) = (   0.5694444   0.5694444   0.3611111), wk =   0.0112360
        k(   62) = (   0.5833333   0.5833333   0.3333333), wk =   0.0112360
        k(   63) = (   0.5972222   0.5972222   0.3055556), wk =   0.0112360
        k(   64) = (   0.6111111   0.6111111   0.2777778), wk =   0.0112360
        k(   65) = (   0.6250000   0.6250000   0.2500000), wk =   0.0112360
        k(   66) = (   0.6000000   0.6500000   0.2500000), wk =   0.0112360
        k(   67) = (   0.5750000   0.6750000   0.2500000), wk =   0.0112360
        k(   68) = (   0.5500000   0.7000000   0.2500000), wk =   0.0112360
        k(   69) = (   0.5250000   0.7250000   0.2500000), wk =   0.0112360
        k(   70) = (   0.5000000   0.7500000   0.2500000), wk =   0.0112360
        k(   71) = (   0.5000000   0.7250000   0.2750000), wk =   0.0112360
        k(   72) = (   0.5000000   0.7000000   0.3000000), wk =   0.0112360
        k(   73) = (   0.5000000   0.6750000   0.3250000), wk =   0.0112360
        k(   74) = (   0.5000000   0.6500000   0.3500000), wk =   0.0112360
        k(   75) = (   0.5000000   0.6250000   0.3750000), wk =   0.0112360
        k(   76) = (   0.5000000   0.6000000   0.4000000), wk =   0.0112360
        k(   77) = (   0.5000000   0.5750000   0.4250000), wk =   0.0112360
        k(   78) = (   0.5000000   0.5500000   0.4500000), wk =   0.0112360
        k(   79) = (   0.5000000   0.5250000   0.4750000), wk =   0.0112360
        k(   80) = (   0.5000000   0.5000000   0.5000000), wk =   0.0112360
        k(   81) = (   0.4861111   0.5277778   0.4861111), wk =   0.0112360
        k(   82) = (   0.4722222   0.5555556   0.4722222), wk =   0.0112360
        k(   83) = (   0.4583333   0.5833333   0.4583333), wk =   0.0112360
        k(   84) = (   0.4444444   0.6111111   0.4444444), wk =   0.0112360
        k(   85) = (   0.4305556   0.6388889   0.4305556), wk =   0.0112360
        k(   86) = (   0.4166667   0.6666667   0.4166667), wk =   0.0112360
        k(   87) = (   0.4027778   0.6944444   0.4027778), wk =   0.0112360
        k(   88) = (   0.3888889   0.7222222   0.3888889), wk =   0.0112360
        k(   89) = (   0.3750000   0.7500000   0.3750000), wk =   0.0112360

     Dense  grid:     2975 G-vectors     FFT dimensions: (  24,  24,  24)

     Estimated max dynamical RAM per process >       1.28MB

     Estimated total allocated dynamical RAM >      10.22MB
     Generating pointlists ...
     new r_m :   0.4125 (alat units)  0.7796 (a.u.) for type    1
     new r_m :   0.4125 (alat units)  0.7796 (a.u.) for type    2

     Check: negative/imaginary core charge=   -0.007906    0.000000

     The potential is recalculated from file :
     ./outdir/pwscf.save/charge-density.dat


     negative rho (up, down):  0.000E+00 2.662E-02
     Starting wfc are   34 randomized atomic wfcs
     Checking if some PAW data can be deallocated... 
       node    0, deallocated PAW data for type:  2
       node    1, deallocated PAW data for type:  2
       node    2, deallocated PAW data for type:  2
       node    3, deallocated PAW data for type:  2
       node    4, deallocated PAW data for type:  1
       node    5, deallocated PAW data for type:  1
       node    6, deallocated PAW data for type:  1
       node    7, deallocated PAW data for type:  1

     Band Structure Calculation
     Davidson diagonalization with overlap

     Computing kpt #:     1
     total cpu time spent up to now is        3.5 secs

     Computing kpt #:     2
     total cpu time spent up to now is        3.6 secs

     Computing kpt #:     3
     total cpu time spent up to now is        3.8 secs

     Computing kpt #:     4
     total cpu time spent up to now is        4.0 secs

     Computing kpt #:     5
     total cpu time spent up to now is        4.1 secs

     Computing kpt #:     6
     total cpu time spent up to now is        4.3 secs

     Computing kpt #:     7
     total cpu time spent up to now is        4.4 secs

     Computing kpt #:     8
     total cpu time spent up to now is        4.5 secs

     Computing kpt #:     9
     total cpu time spent up to now is        4.7 secs

     Computing kpt #:    10
     total cpu time spent up to now is        4.8 secs

     Computing kpt #:    11
     total cpu time spent up to now is        5.0 secs

     Computing kpt #:    12
     total cpu time spent up to now is        5.1 secs

     Computing kpt #:    13
     total cpu time spent up to now is        5.3 secs

     Computing kpt #:    14
     total cpu time spent up to now is        5.4 secs

     Computing kpt #:    15
     total cpu time spent up to now is        5.5 secs

     Computing kpt #:    16
     total cpu time spent up to now is        5.7 secs

     Computing kpt #:    17
     total cpu time spent up to now is        5.8 secs

     Computing kpt #:    18
     total cpu time spent up to now is        5.9 secs

     Computing kpt #:    19
     total cpu time spent up to now is        6.0 secs

     Computing kpt #:    20
     total cpu time spent up to now is        6.2 secs

     Computing kpt #:    21
     total cpu time spent up to now is        6.3 secs

     Computing kpt #:    22
     total cpu time spent up to now is        6.5 secs

     Computing kpt #:    23
     total cpu time spent up to now is        6.6 secs

     Computing kpt #:    24
     total cpu time spent up to now is        6.8 secs

     Computing kpt #:    25
     total cpu time spent up to now is        7.0 secs

     Computing kpt #:    26
     total cpu time spent up to now is        7.1 secs

     Computing kpt #:    27
     total cpu time spent up to now is        7.3 secs

     Computing kpt #:    28
     total cpu time spent up to now is        7.4 secs

     Computing kpt #:    29
     total cpu time spent up to now is        7.6 secs

     Computing kpt #:    30
     total cpu time spent up to now is        7.7 secs

     Computing kpt #:    31
     total cpu time spent up to now is        7.9 secs

     Computing kpt #:    32
     total cpu time spent up to now is        8.0 secs

     Computing kpt #:    33
     total cpu time spent up to now is        8.2 secs

     Computing kpt #:    34
     total cpu time spent up to now is        8.4 secs

     Computing kpt #:    35
     total cpu time spent up to now is        8.5 secs

     Computing kpt #:    36
     total cpu time spent up to now is        8.7 secs

     Computing kpt #:    37
     total cpu time spent up to now is        8.8 secs

     Computing kpt #:    38
     total cpu time spent up to now is        8.9 secs

     Computing kpt #:    39
     total cpu time spent up to now is        9.1 secs

     Computing kpt #:    40
     total cpu time spent up to now is        9.2 secs

     Computing kpt #:    41
     total cpu time spent up to now is        9.4 secs

     Computing kpt #:    42
     total cpu time spent up to now is        9.6 secs

     Computing kpt #:    43
     total cpu time spent up to now is        9.8 secs

     Computing kpt #:    44
     total cpu time spent up to now is        9.9 secs

     Computing kpt #:    45
     total cpu time spent up to now is       10.1 secs

     Computing kpt #:    46
     total cpu time spent up to now is       10.2 secs

     Computing kpt #:    47
     total cpu time spent up to now is       10.4 secs

     Computing kpt #:    48
     total cpu time spent up to now is       10.5 secs

     Computing kpt #:    49
     total cpu time spent up to now is       10.6 secs

     Computing kpt #:    50
     total cpu time spent up to now is       10.7 secs

     Computing kpt #:    51
     total cpu time spent up to now is       10.8 secs

     Computing kpt #:    52
     total cpu time spent up to now is       10.9 secs

     Computing kpt #:    53
     total cpu time spent up to now is       11.0 secs

     Computing kpt #:    54
     total cpu time spent up to now is       11.1 secs

     Computing kpt #:    55
     total cpu time spent up to now is       11.2 secs

     Computing kpt #:    56
     total cpu time spent up to now is       11.3 secs

     Computing kpt #:    57
     total cpu time spent up to now is       11.5 secs

     Computing kpt #:    58
     total cpu time spent up to now is       11.6 secs

     Computing kpt #:    59
     total cpu time spent up to now is       11.7 secs

     Computing kpt #:    60
     total cpu time spent up to now is       11.8 secs

     Computing kpt #:    61
     total cpu time spent up to now is       11.9 secs

     Computing kpt #:    62
     total cpu time spent up to now is       12.0 secs

     Computing kpt #:    63
     total cpu time spent up to now is       12.2 secs

     Computing kpt #:    64
     total cpu time spent up to now is       12.4 secs

     Computing kpt #:    65
     total cpu time spent up to now is       12.5 secs

     Computing kpt #:    66
     total cpu time spent up to now is       12.7 secs

     Computing kpt #:    67
     total cpu time spent up to now is       12.8 secs

     Computing kpt #:    68
     total cpu time spent up to now is       13.0 secs

     Computing kpt #:    69
     total cpu time spent up to now is       13.2 secs

     Computing kpt #:    70
     total cpu time spent up to now is       13.3 secs

     Computing kpt #:    71
     total cpu time spent up to now is       13.4 secs

     Computing kpt #:    72
     total cpu time spent up to now is       13.6 secs

     Computing kpt #:    73
     total cpu time spent up to now is       13.7 secs

     Computing kpt #:    74
     total cpu time spent up to now is       13.8 secs

     Computing kpt #:    75
     total cpu time spent up to now is       13.9 secs

     Computing kpt #:    76
     total cpu time spent up to now is       14.0 secs

     Computing kpt #:    77
     total cpu time spent up to now is       14.2 secs

     Computing kpt #:    78
     total cpu time spent up to now is       14.3 secs

     Computing kpt #:    79
     total cpu time spent up to now is       14.4 secs

     Computing kpt #:    80
     total cpu time spent up to now is       14.5 secs

     Computing kpt #:    81
     total cpu time spent up to now is       14.6 secs

     Computing kpt #:    82
     total cpu time spent up to now is       14.7 secs

     Computing kpt #:    83
     total cpu time spent up to now is       14.8 secs

     Computing kpt #:    84
     total cpu time spent up to now is       14.9 secs

     Computing kpt #:    85
     total cpu time spent up to now is       15.1 secs

     Computing kpt #:    86
     total cpu time spent up to now is       15.2 secs

     Computing kpt #:    87
     total cpu time spent up to now is       15.3 secs

     Computing kpt #:    88
     total cpu time spent up to now is       15.5 secs

     Computing kpt #:    89
     total cpu time spent up to now is       15.7 secs

     ethr =  4.55E-08,  avg # of iterations = 11.2

     total cpu time spent up to now is       15.7 secs

     End of band structure calculation

          k = 0.0000 0.0000 0.0000 (   339 PWs)   bands (ev):

   -75.5770 -71.8426 -41.9057 -41.4245 -40.7431 -37.9998 -37.5305 -37.1442
    -6.4688  -5.8591   9.9458   9.9622  10.0058  10.2430  10.2592  10.4101
    10.4244  10.4395  11.0376  11.0515  11.0656  12.8523  12.8742  12.9057
    13.6285  13.6335  14.4969  15.3150  29.2966  29.6426

          k = 0.0154 0.0000 0.0000 (   351 PWs)   bands (ev):

   -75.5855 -71.8506 -41.9441 -41.4413 -40.7813 -38.0345 -37.5455 -37.1789
    -6.4574  -5.8473   9.7812   9.8914   9.9066   9.9757  10.2494  10.4961
    10.4980  10.7766  10.8409  11.0073  11.0076  12.8543  12.9221  12.9362
    13.6351  13.7424  14.5916  15.4117  28.9422  29.4219

          k = 0.0309 0.0000 0.0000 (   355 PWs)   bands (ev):

   -75.5887 -71.8535 -41.9613 -41.4472 -40.7978 -38.0505 -37.5509 -37.1942
    -6.4105  -5.8000   9.2108   9.7515   9.7535   9.9390  10.2600  10.3681
    10.6501  10.6506  10.8967  10.8988  11.1042  12.8174  13.0505  13.0574
    13.6512  13.9526  14.9232  15.7629  28.3248  28.9605

          k = 0.0463 0.0000 0.0000 (   359 PWs)   bands (ev):

   -75.5917 -71.8563 -41.9755 -41.4586 -40.8120 -38.0640 -37.5617 -37.2075
    -6.3360  -5.7247   8.6430   9.5938   9.5944   9.8222   9.8896  10.2788
    10.7427  10.7434  10.8089  10.8094  11.3436  12.7484  13.2272  13.2329
    13.6774  14.1383  15.4248  16.3149  27.7107  28.4614

          k = 0.0618 0.0000 0.0000 (   371 PWs)   bands (ev):

   -75.6007 -71.8643 -42.0034 -41.5078 -40.8415 -38.0906 -37.6073 -37.2353
    -6.2427  -5.6299   8.1201   9.2885   9.4507   9.4509   9.8254  10.3044
    10.5844  10.5849  10.9587  10.9596  11.5195  12.6556  13.4214  13.4275
    13.7127  14.2875  16.0161  16.9680  27.1463  27.9919

          k = 0.0772 0.0000 0.0000 (   367 PWs)   bands (ev):

   -75.5969 -71.8604 -41.9937 -41.4991 -40.8321 -38.0829 -37.6001 -37.2279
    -6.1268  -5.5124   7.6583   8.7999   9.3462   9.3464   9.7488  10.3352
    10.4619  10.4620  11.1060  11.1073  11.6443  12.5446  13.6181  13.6274
    13.7580  14.4154  16.7097  17.7106  26.6438  27.5729

          k = 0.0927 0.0000 0.0000 (   367 PWs)   bands (ev):

   -75.5959 -71.8594 -41.9955 -41.5012 -40.8343 -38.0856 -37.6028 -37.2310
    -6.0023  -5.3855   7.2709   8.3755   9.2600   9.2602   9.6630  10.3345
    10.3384  10.3750  11.2129  11.2148  11.7289  12.4209  13.7736  13.8088
    13.8314  14.5290  17.3685  18.4064  26.2008  27.2064

          k = 0.1081 0.0000 0.0000 (   367 PWs)   bands (ev):

   -75.5946 -71.8580 -41.9957 -41.5021 -40.8349 -38.0870 -37.6044 -37.2327
    -5.8757  -5.2557   6.9731   8.0342   9.2026   9.2029   9.5721  10.2338
    10.2351  10.4106  11.2840  11.2864  11.7780  12.2905  13.8436  13.9633
    13.9669  14.6285  17.9930  19.0538  25.8168  26.8925

          k = 0.1235 0.0000 0.0000 (   371 PWs)   bands (ev):

   -75.5953 -71.8587 -42.0093 -41.5150 -40.8489 -38.1006 -37.6167 -37.2465
    -5.7527  -5.1290   6.7560   7.7655   9.1591   9.1594   9.4799  10.1312
    10.1321  10.4495  11.3076  11.3108  11.7817  12.1595  13.8988  14.0828
    14.0835  14.7048  18.6240  19.6893  25.4876  26.6272

          k = 0.1390 0.0000 0.0000 (   371 PWs)   bands (ev):

   -75.5942 -71.8575 -42.0114 -41.5162 -40.8513 -38.1037 -37.6185 -37.2499
    -5.6434  -5.0151   6.6573   7.6106   9.1547   9.1552   9.3906  10.0683
    10.0691  10.4877  11.3037  11.3075  11.7565  12.0335  13.9514  14.1689
    14.1693  14.7602  19.0961  20.1652  25.2119  26.2879

          k = 0.1544 0.0000 0.0000 (   379 PWs)   bands (ev):

   -75.5993 -71.8620 -42.0494 -41.5253 -40.8874 -38.1392 -37.6269 -37.2830
    -5.5502  -4.9170   6.6003   7.4824   9.1725   9.1735   9.3082  10.0238
    10.0244  10.5236  11.2680  11.2730  11.6777  11.9177  14.0002  14.2226
    14.2235  14.7802  19.3906  20.4689  24.9853  25.3036

          k = 0.1699 0.0000 0.0000 (   375 PWs)   bands (ev):

   -75.5952 -71.8579 -42.0353 -41.5187 -40.8745 -38.1274 -37.6217 -37.2724
    -5.4721  -4.8339   6.7027   7.5146   9.2074   9.2117   9.2388   9.9980
     9.9985  10.5553  11.2106  11.2169  11.5732  11.8166  14.0432  14.2507
    14.2518  14.7690  19.6404  20.7234  24.6312  24.8048

          k = 0.1853 0.0000 0.0000 (   383 PWs)   bands (ev):

   -75.6014 -71.8638 -42.0620 -41.5484 -40.9017 -38.1523 -37.6493 -37.2977
    -5.4173  -4.7746   6.8138   7.5490   9.1724   9.2077   9.2099   9.9273
     9.9278  10.5812  11.1324  11.1412  11.4317  11.7338  14.0784  14.2584
    14.2596  14.7211  19.7741  20.8725  24.0499  24.6651

          k = 0.2008 0.0000 0.0000 (   379 PWs)   bands (ev):

   -75.5978 -71.8604 -42.0447 -41.5469 -40.8856 -38.1373 -37.6485 -37.2841
    -5.3793  -4.7330   6.9452   7.6079   9.1298   9.2519   9.2522   9.9200
     9.9204  10.6005  11.0658  11.0792  11.2915  11.6727  14.1043  14.2581
    14.2593  14.6614  19.8666  20.9822  23.8267  24.5280

          k = 0.2162 0.0000 0.0000 (   388 PWs)   bands (ev):

   -75.6052 -71.8675 -42.0788 -41.5743 -40.9194 -38.1684 -37.6736 -37.3147
    -5.3584  -4.7098   7.0070   7.6152   9.1027   9.2808   9.2808   9.9135
     9.9138  10.6122  11.0139  11.0345  11.1864  11.6352  14.1199  14.2545
    14.2557  14.6106  19.8220  20.9552  23.6334  24.3060

          k = 0.2316 0.0000 0.0000 (   388 PWs)   bands (ev):

   -75.6052 -71.8676 -42.0801 -41.5750 -40.9207 -38.1698 -37.6743 -37.3160
    -5.3515  -4.7020   7.0446   7.6327   9.0935   9.2922   9.2923   9.9122
     9.9126  10.6162  10.9933  11.0182  11.1491  11.6225  14.1250  14.2528
    14.2540  14.5911  19.8225  20.9610  23.5847  24.2469

          k = 0.2316 0.0000 0.0165 (   380 PWs)   bands (ev):

   -75.5984 -71.8611 -42.0635 -41.5281 -40.9047 -38.1540 -37.6311 -37.3016
    -5.3433  -4.6941   7.0771   7.6704   8.8736   9.1154   9.5181   9.8225
     9.8324  10.7400  11.0068  11.0222  11.1800  11.7281  14.1743  14.2466
    14.2638  14.6084  19.9318  21.0639  23.5799  24.2453

          k = 0.2316 0.0000 0.0331 (   372 PWs)   bands (ev):

   -75.5924 -71.8553 -42.0427 -41.4994 -40.8843 -38.1351 -37.6049 -37.2834
    -5.3230  -4.6746   7.1191   7.7296   8.5936   8.7663   9.6074   9.6479
     9.8206  10.8829  11.0324  11.0436  11.3537  11.9919  14.2225  14.2243
    14.3427  14.6822  20.2149  21.3338  23.5877  24.2622

          k = 0.2316 0.0000 0.0496 (   376 PWs)   bands (ev):

   -75.5959 -71.8586 -42.0494 -41.5212 -40.8911 -38.1413 -37.6252 -37.2895
    -5.2952  -4.6479   7.1514   7.7898   8.3098   8.3110   9.3057   9.3131
    10.0930  10.9196  11.0421  11.0633  11.6287  12.3257  14.1760  14.2326
    14.4246  14.8336  20.5734  21.6830  23.5666  24.1880

          k = 0.2316 0.0000 0.0662 (   378 PWs)   bands (ev):

   -75.5979 -71.8605 -42.0438 -41.5562 -40.8837 -38.1372 -37.6578 -37.2827
    -5.2637  -4.6177   7.1972   7.8723   7.9376   8.0652   9.0088   9.0349
    10.3518  10.9320  11.0424  11.0720  11.8940  12.6806  14.0986  14.2352
    14.4648  15.0217  21.0049  22.1139  23.5516  24.0385

          k = 0.2316 0.0000 0.0827 (   386 PWs)   bands (ev):

   -75.6051 -71.8674 -42.0683 -41.5888 -40.9093 -38.1594 -37.6874 -37.3062
    -5.2361  -4.5913   7.2655   7.6355   7.8050   7.9838   8.7184   8.7478
    10.5537  10.9373  11.0228  11.0762  12.0835  13.0155  13.9816  14.2365
    14.4842  15.1738  21.4320  22.5513  23.5482  23.8594

          k = 0.2316-0.0000 0.0993 (   382 PWs)   bands (ev):

   -75.6021 -71.8645 -42.0526 -41.5856 -40.8932 -38.1455 -37.6848 -37.2917
    -5.2164  -4.5725   7.3651   7.4565   7.6526   8.1314   8.5227   8.5927
    10.7476  10.9401  10.9749  11.0785  12.2049  13.3338  13.8184  14.2372
    14.4942  15.2736  21.8257  22.9574  23.5866  23.7344

          k = 0.2316-0.0000 0.1158 (   380 PWs)   bands (ev):

   -75.6006 -71.8631 -42.0508 -41.5703 -40.8920 -38.1436 -37.6707 -37.2906
    -5.2091  -4.5655   7.3996   7.4914   7.4955   8.3094   8.3126   8.5447
    10.8558  10.9107  10.9409  11.0793  12.2478  13.5750  13.6280  14.2374
    14.4973  15.3083  21.9988  23.1366  23.6454  23.6468

          k = 0.2201 0.0000 0.1274 (   383 PWs)   bands (ev):

   -75.6030 -71.8654 -42.0637 -41.5728 -40.9050 -38.1549 -37.6727 -37.3023
    -5.2122  -4.5687   7.3431   7.4032   7.6286   8.1871   8.3078   8.6686
    10.7244  10.9104  11.0237  11.1250  12.2518  13.4153  13.7603  14.2383
    14.5173  15.3073  21.9334  23.0666  23.5997  23.6304

          k = 0.2085 0.0000 0.1390 (   380 PWs)   bands (ev):

   -75.6007 -71.8632 -42.0491 -41.5749 -40.8890 -38.1420 -37.6754 -37.2874
    -5.2189  -4.5756   7.2765   7.3357   7.8091   8.0927   8.2370   8.9118
    10.5490  10.9049  11.1064  11.2396  12.2698  13.2294  13.8900  14.2388
    14.5774  15.3060  21.8014  22.9210  23.5590  23.5681

          k = 0.1969 0.0000 0.1506 (   380 PWs)   bands (ev):

   -75.6007 -71.8632 -42.0490 -41.5738 -40.8887 -38.1418 -37.6745 -37.2868
    -5.2263  -4.5834   7.2237   7.2863   7.9418   8.0235   8.1706   9.1084
    10.3869  10.8947  11.1631  11.3638  12.2869  13.0586  13.9905  14.2354
    14.6602  15.2941  21.6586  22.7615  23.4363  23.5548

          k = 0.1853 0.0000 0.1622 (   380 PWs)   bands (ev):

   -75.6003 -71.8629 -42.0523 -41.5649 -40.8917 -38.1444 -37.6665 -37.2892
    -5.2318  -4.5890   7.1890   7.2460   7.9704   8.0509   8.1276   9.2658
    10.2722  10.8873  11.1953  11.4549  12.3158  12.9383  14.0572  14.2276
    14.7342  15.2867  21.5410  22.6302  23.3460  23.5499

          k = 0.1737 0.0000 0.1737 (   377 PWs)   bands (ev):

   -75.5977 -71.8604 -42.0460 -41.5493 -40.8848 -38.1383 -37.6530 -37.2824
    -5.2337  -4.5910   7.1787   7.2471   7.9680   8.0976   8.1156   9.3323
    10.2307  10.8851  11.2086  11.4880  12.3343  12.8948  14.0812  14.2255
    14.7640  15.2853  21.5264  22.6091  23.3044  23.5572

          k = 0.1622 0.0000 0.1622 (   383 PWs)   bands (ev):

   -75.6032 -71.8655 -42.0636 -41.5722 -40.9024 -38.1540 -37.6742 -37.2978
    -5.2144  -4.5745   6.8163   7.2994   7.7424   7.8788   8.0704   9.1787
    10.4013  10.8303  11.2659  11.5317  12.7030  13.2008  14.0090  14.1991
    14.7658  15.6077  22.0040  22.7957  23.0982  23.5680

          k = 0.1506 0.0000 0.1506 (   383 PWs)   bands (ev):

   -75.6035 -71.8658 -42.0619 -41.5734 -40.9005 -38.1520 -37.6755 -37.2955
    -5.2126  -4.5761   6.5267   7.3991   7.4458   7.7126   8.2255   9.0629
    10.5490  10.7671  11.3219  11.5565  13.0233  13.4799  13.9255  14.1629
    14.7452  15.8937  21.9959  22.8121  22.9826  23.6100

          k = 0.1390 0.0000 0.1390 (   385 PWs)   bands (ev):

   -75.6052 -71.8675 -42.0646 -41.5831 -40.9019 -38.1540 -37.6846 -37.2958
    -5.2361  -4.6031   6.3266   7.2424   7.5202   7.5980   8.4046   8.9866
    10.6603  10.6971  11.3668  11.5646  13.2741  13.7107  13.8326  14.1124
    14.7047  16.1176  21.3744  22.2856  23.3906  23.6959

          k = 0.1274 0.0000 0.1274 (   379 PWs)   bands (ev):

   -75.6004 -71.8630 -42.0403 -41.5595 -40.8784 -38.1312 -37.6626 -37.2742
    -5.2890  -4.6595   6.2224   7.1380   7.5465   7.6634   8.6067   8.9693
    10.6194  10.7301  11.3949  11.5535  13.4541  13.7320  13.8768  14.0489
    14.6459  16.2668  20.7396  21.6105  23.8682  24.2198

          k = 0.1158 0.0000 0.1158 (   379 PWs)   bands (ev):

   -75.6010 -71.8637 -42.0375 -41.5579 -40.8755 -38.1279 -37.6606 -37.2708
    -5.3716  -4.7455   6.2314   7.1501   7.5421   7.8279   8.8298   8.9874
    10.5388  10.7533  11.4023  11.5252  13.5246  13.6285  13.9349  13.9993
    14.5731  16.3117  20.0881  20.9403  24.0618  24.9425

          k = 0.1042 0.0000 0.1042 (   373 PWs)   bands (ev):

   -75.5965 -71.8596 -42.0144 -41.5391 -40.8519 -38.1061 -37.6430 -37.2484
    -5.4816  -4.8586   6.3631   7.2893   7.6010   8.0460   9.0659   9.1148
    10.4560  10.7363  11.4063  11.4798  13.4922  13.5375  13.8593  14.0003
    14.4875  16.2625  19.4374  20.2837  24.3302  25.2473

          k = 0.0927 0.0000 0.0927 (   371 PWs)   bands (ev):

   -75.5961 -71.8594 -42.0085 -41.5281 -40.8466 -38.0995 -37.6320 -37.2429
    -5.6217  -5.0015   6.5700   7.5035   7.7123   8.2460   9.1907   9.3669
    10.3731  10.6864  11.3613  11.3959  13.3797  13.4241  13.7452  13.9496
    14.3763  16.1081  18.7826  19.6283  24.6698  25.6009

          k = 0.0811 0.0000 0.0811 (   371 PWs)   bands (ev):

   -75.5982 -71.8615 -42.0058 -41.5318 -40.8428 -38.0962 -37.6343 -37.2383
    -5.7720  -5.1542   6.9062   7.8527   7.8765   8.4726   9.3595   9.6443
    10.2927  10.6113  11.2970  11.3101  13.1828  13.3008  13.6204  13.8463
    14.2620  15.8602  18.0410  18.8954  25.0898  26.0231

          k = 0.0695 0.0000 0.0695 (   371 PWs)   bands (ev):

   -75.5994 -71.8628 -42.0043 -41.5306 -40.8410 -38.0937 -37.6322 -37.2358
    -5.9249  -5.3092   7.3083   8.0933   8.2697   8.7011   9.5751   9.9083
    10.2171  10.5182  11.1941  11.2093  12.8957  13.1978  13.4845  13.7026
    14.1442  15.5398  17.3778  18.2337  25.5815  26.5028

          k = 0.0579 0.0000 0.0579 (   367 PWs)   bands (ev):

   -75.5975 -71.8611 -41.9914 -41.5124 -40.8293 -38.0808 -37.6141 -37.2248
    -6.0726  -5.4586   7.8083   8.3619   8.7928   8.9418   9.8313  10.1439
    10.1773  10.4156  11.0851  11.1019  12.5428  13.1060  13.3459  13.5342
    14.0377  15.1670  16.7272  17.5808  26.1472  27.0392

          k = 0.0463 0.0000 0.0463 (   367 PWs)   bands (ev):

   -75.5982 -71.8620 -41.9884 -41.5098 -40.8260 -38.0772 -37.6107 -37.2210
    -6.2069  -5.5943   8.3222   8.6769   9.1840   9.3275  10.0864  10.1175
    10.3099  10.4229  10.9480  10.9870  12.1391  13.0269  13.2087  13.3591
    13.9364  14.7645  16.0798  16.9241  26.7774  27.6205

          k = 0.0347 0.0000 0.0347 (   365 PWs)   bands (ev):

   -75.5967 -71.8607 -41.9771 -41.5064 -40.8137 -38.0662 -37.6069 -37.2089
    -6.3201  -5.7086   8.8575   9.0380   9.4384   9.8832  10.0403  10.2154
    10.4226  10.6724  10.8118  10.8732  11.7054  12.9624  13.0826  13.1946
    13.8424  14.3642  15.4570  16.2891  27.4672  28.2358

          k = 0.0232 0.0000 0.0232 (   359 PWs)   bands (ev):

   -75.5919 -71.8564 -41.9561 -41.4901 -40.7923 -38.0467 -37.5912 -37.1891
    -6.4045  -5.7938   9.3839   9.4408   9.6746  10.0046  10.1468  10.4255
    10.6595  10.7157  10.7514  10.8753  11.2575  12.9140  12.9736  13.0520
    13.7506  14.0029  14.9493  15.7706  28.1948  28.8531

          k = 0.0116 0.0000 0.0116 (   353 PWs)   bands (ev):

   -75.5870 -71.8517 -41.9369 -41.4691 -40.7734 -38.0287 -37.5715 -37.1717
    -6.4561  -5.8460   9.8200   9.8554   9.8824   9.9877  10.1333  10.5043
    10.5817  10.7935  10.8660  10.9471  11.0038  12.8790  12.8960  12.9447
    13.6687  13.7331  14.6018  15.4205  28.8989  29.3925

          k = 0.0000 0.0000 0.0000 (   339 PWs)   bands (ev):

   -75.5770 -71.8426 -41.9057 -41.4245 -40.7431 -37.9998 -37.5305 -37.1442
    -6.4688  -5.8591   9.9458   9.9622  10.0058  10.2430  10.2592  10.4101
    10.4244  10.4395  11.0376  11.0515  11.0656  12.8523  12.8742  12.9057
    13.6285  13.6335  14.4969  15.3150  29.2966  29.6426

          k = 0.0089 0.0089 0.0089 (   354 PWs)   bands (ev):

   -75.5877 -71.8524 -41.9437 -41.4621 -40.7807 -38.0346 -37.5649 -37.1782
    -6.4585  -5.8484   9.8394   9.8661   9.9137  10.0394  10.0672  10.4311
    10.7025  10.7070  10.8921  10.9674  10.9820  12.8773  12.8994  12.9326
    13.6925  13.6975  14.5855  15.4039  28.9322  29.4159

          k = 0.0178 0.0178 0.0178 (   363 PWs)   bands (ev):

   -75.5956 -71.8596 -41.9719 -41.4897 -40.8080 -38.0606 -37.5905 -37.2031
    -6.4124  -5.8018   9.4876   9.5480   9.5693  10.0483  10.0550  10.4515
    10.4816  10.7785  10.7901  11.0605  11.0654  12.9368  12.9569  13.0023
    13.8681  13.8741  14.8929  15.7078  28.2532  28.9010

          k = 0.0267 0.0267 0.0267 (   362 PWs)   bands (ev):

   -75.5951 -71.8590 -41.9729 -41.4910 -40.8095 -38.0622 -37.5923 -37.2051
    -6.3353  -5.7240   9.0434   9.2134   9.2289  10.0107  10.0961  10.0994
    10.5145  10.5528  10.5576  11.4257  11.4323  13.0171  13.0339  13.0909
    14.1233  14.1309  15.3581  16.1696  27.5254  28.2827

          k = 0.0356 0.0356 0.0356 (   362 PWs)   bands (ev):

   -75.5948 -71.8586 -41.9765 -41.4945 -40.8131 -38.0662 -37.5963 -37.2089
    -6.2326  -5.6204   8.5371   8.8935   8.9066   9.4774  10.1584  10.1625
    10.2908  10.2996  10.5920  11.7822  11.7902  13.1129  13.1274  13.1878
    14.4237  14.4325  15.8880  16.6979  26.7992  27.6290

          k = 0.0445 0.0445 0.0445 (   362 PWs)   bands (ev):

   -75.5941 -71.8578 -41.9788 -41.4968 -40.8155 -38.0692 -37.5993 -37.2119
    -6.1085  -5.4952   8.0119   8.5958   8.6076   8.9281  10.0277  10.0320
    10.2415  10.2430  10.6761  12.1234  12.1325  13.2217  13.2351  13.2959
    14.7429  14.7521  16.4487  17.2560  26.0926  26.9691

          k = 0.0535 0.0535 0.0535 (   362 PWs)   bands (ev):

   -75.5930 -71.8566 -41.9797 -41.4978 -40.8167 -38.0710 -37.6012 -37.2137
    -5.9682  -5.3537   7.4938   8.3247   8.3357   8.3900   9.7783   9.7817
    10.3282  10.3296  10.7740  12.4432  12.4533  13.3408  13.3529  13.4176
    15.0617  15.0710  17.0091  17.8102  25.4192  26.3240

          k = 0.0624 0.0624 0.0624 (   368 PWs)   bands (ev):

   -75.5963 -71.8596 -42.0022 -41.5175 -40.8353 -38.0927 -37.6207 -37.2302
    -5.8199  -5.2042   6.9443   7.8167   8.0809   8.0912   9.5452   9.5477
    10.4192  10.4211  10.8679  12.7328  12.7438  13.4649  13.4753  13.5487
    15.3641  15.3732  17.5103  18.2983  24.7737  25.6980

          k = 0.0713 0.0713 0.0713 (   365 PWs)   bands (ev):

   -75.5927 -71.8559 -41.9951 -41.5099 -40.8275 -38.0874 -37.6149 -37.2238
    -5.6691  -5.0522   6.4957   7.3548   7.8780   7.8880   9.3515   9.3533
    10.5092  10.5115  10.9837  13.0017  13.0140  13.5887  13.5965  13.6945
    15.6490  15.6579  18.0053  18.7693  24.2212  25.1579

          k = 0.0802 0.0802 0.0802 (   362 PWs)   bands (ev):

   -75.5888 -71.8522 -41.9858 -41.5020 -40.8203 -38.0798 -37.6084 -37.2183
    -5.5193  -4.9015   6.1198   6.9698   7.7054   7.7151   9.1824   9.1838
    10.5924  10.5951  11.1071  13.2256  13.2393  13.7029  13.7093  13.8496
    15.8945  15.9029  18.4770  19.2024  23.7140  24.6709

          k = 0.0891 0.0891 0.0891 (   368 PWs)   bands (ev):

   -75.5928 -71.8559 -42.0056 -41.5211 -40.8392 -38.0987 -37.6265 -37.2356
    -5.3968  -4.7780   5.7729   6.6128   7.5592   7.5686   9.0333   9.0344
    10.6634  10.6666  11.2056  13.3904  13.4056  13.7998  13.8061  13.9886
    16.0850  16.0929  18.7766  19.4543  23.3426  24.3221

          k = 0.0980 0.0980 0.0980 (   374 PWs)   bands (ev):

   -75.5973 -71.8600 -42.0307 -41.5424 -40.8591 -38.1224 -37.6471 -37.2528
    -5.3021  -4.6825   5.5341   6.3677   7.4571   7.4662   8.9297   8.9306
    10.7179  10.7215  11.2901  13.5158  13.5324  13.8739  13.8807  14.1058
    16.2313  16.2388  18.9839  19.6105  22.9742  23.9901

          k = 0.1069 0.1069 0.1069 (   374 PWs)   bands (ev):

   -75.5970 -71.8597 -42.0325 -41.5437 -40.8602 -38.1245 -37.6487 -37.2538
    -5.2408  -4.6208   5.3871   6.2170   7.3975   7.4067   8.8703   8.8711
    10.7521  10.7560  11.3465  13.5959  13.6136  13.9208  13.9281  14.1867
    16.3238  16.3310  19.1062  19.6922  22.8210  23.8595

          k = 0.1158 0.1158 0.1158 (   368 PWs)   bands (ev):

   -75.5917 -71.8547 -42.0132 -41.5252 -40.8421 -38.1070 -37.6320 -37.2378
    -5.2181  -4.5979   5.3377   6.1665   7.3851   7.3942   8.8616   8.8623
    10.7639  10.7678  11.3666  13.6355  13.6541  13.9376  13.9451  14.2162
    16.3638  16.3710  19.1866  19.7540  22.8244  23.8701

          k = 0.1287 0.1094 0.1094 (   376 PWs)   bands (ev):

   -75.5987 -71.8614 -42.0397 -41.5460 -40.8703 -38.1308 -37.6508 -37.2637
    -5.2191  -4.5984   5.3656   6.1941   7.3737   7.3957   8.8250   8.8612
    10.7551  10.7670  11.3595  13.5523  13.6134  13.9241  13.9396  14.2077
    16.2817  16.3437  19.2683  19.8541  22.7591  23.8071

          k = 0.1416 0.1030 0.1030 (   378 PWs)   bands (ev):

   -75.6003 -71.8628 -42.0439 -41.5547 -40.8762 -38.1349 -37.6585 -37.2698
    -5.2185  -4.5963   5.4546   6.2825   7.3825   7.4224   8.7915   8.8765
    10.7269  10.7689  11.3415  13.3666  13.5443  13.8745  13.9395  14.1888
    16.1070  16.2877  19.5482  20.1743  22.7103  23.7584

          k = 0.1544 0.0965 0.0965 (   381 PWs)   bands (ev):

   -75.6025 -71.8650 -42.0544 -41.5610 -40.8891 -38.1443 -37.6641 -37.2824
    -5.2171  -4.5925   5.6087   6.4363   7.3885   7.4719   8.7278   8.9088
    10.6827  10.7733  11.3160  13.0866  13.4412  13.7931  13.9429  14.1671
    15.8666  16.2034  19.9633  20.6348  22.6276  23.6772

          k = 0.1673 0.0901 0.0901 (   375 PWs)   bands (ev):

   -75.5973 -71.8601 -42.0325 -41.5471 -40.8693 -38.1247 -37.6514 -37.2656
    -5.2139  -4.5863   5.8151   6.6434   7.4089   7.5466   8.6620   8.9629
    10.6270  10.7809  11.2878  12.7714  13.3136  13.6861  13.9510  14.1534
    15.6112  16.0975  20.5183  21.2296  22.5852  23.6353

          k = 0.1802 0.0837 0.0837 (   376 PWs)   bands (ev):

   -75.5978 -71.8606 -42.0369 -41.5495 -40.8743 -38.1290 -37.6535 -37.2709
    -5.2136  -4.5825   6.0548   6.8849   7.4052   7.6342   8.5511   9.0228
    10.5627  10.7926  11.2576  12.4219  13.1529  13.5555  13.9645  14.1488
    15.3492  15.9651  21.0840  21.8360  22.4688  23.5266

          k = 0.1930 0.0772 0.0772 (   380 PWs)   bands (ev):

   -75.6007 -71.8633 -42.0493 -41.5631 -40.8880 -38.1405 -37.6658 -37.2841
    -5.2143  -4.5797   6.3221   7.1572   7.3929   7.7295   8.4266   9.0821
    10.4913  10.8092  11.2349  12.0905  12.9609  13.4060  13.9847  14.1595
    15.1159  15.8091  21.6350  22.3354  22.4343  23.4024

          k = 0.2059 0.0708 0.0708 (   383 PWs)   bands (ev):

   -75.6029 -71.8654 -42.0632 -41.5685 -40.9023 -38.1533 -37.6705 -37.2975
    -5.2170  -4.5791   6.6106   7.3477   7.4551   7.8421   8.2723   9.1575
    10.4125  10.8309  11.2245  11.7961  12.7598  13.2420  14.0119  14.1818
    14.9273  15.6431  21.9093  22.4329  22.8581  23.4154

          k = 0.2188 0.0643 0.0643 (   378 PWs)   bands (ev):

   -75.5987 -71.8614 -42.0493 -41.5520 -40.8877 -38.1410 -37.6558 -37.2846
    -5.2226  -4.5818   6.9063   7.3071   7.7672   7.9687   8.1430   9.2458
    10.3259  10.8570  11.2252  11.5856  12.5520  13.0702  14.0449  14.2084
    14.8080  15.4688  21.7845  22.8463  22.8970  23.7438

          k = 0.2316 0.0579 0.0579 (   377 PWs)   bands (ev):

   -75.5977 -71.8604 -42.0460 -41.5493 -40.8848 -38.1383 -37.6530 -37.2824
    -5.2337  -4.5910   7.1787   7.2471   7.9680   8.0976   8.1156   9.3323
    10.2307  10.8851  11.2086  11.4880  12.3343  12.8948  14.0812  14.2255
    14.7640  15.2853  21.5264  22.6091  23.3044  23.5572

          k = 0.2316 0.0463 0.0695 (   380 PWs)   bands (ev):

   -75.6003 -71.8629 -42.0523 -41.5649 -40.8917 -38.1444 -37.6665 -37.2892
    -5.2318  -4.5890   7.1890   7.2460   7.9704   8.0509   8.1276   9.2658
    10.2722  10.8873  11.1953  11.4549  12.3158  12.9383  14.0572  14.2276
    14.7342  15.2867  21.5410  22.6302  23.3460  23.5499

          k = 0.2316 0.0347 0.0811 (   380 PWs)   bands (ev):

   -75.6007 -71.8632 -42.0490 -41.5738 -40.8887 -38.1418 -37.6745 -37.2868
    -5.2263  -4.5834   7.2237   7.2863   7.9418   8.0235   8.1706   9.1084
    10.3869  10.8947  11.1631  11.3638  12.2869  13.0586  13.9905  14.2354
    14.6602  15.2941  21.6586  22.7615  23.4363  23.5548

          k = 0.2316 0.0232 0.0927 (   380 PWs)   bands (ev):

   -75.6007 -71.8632 -42.0491 -41.5749 -40.8890 -38.1420 -37.6754 -37.2874
    -5.2189  -4.5756   7.2765   7.3357   7.8091   8.0927   8.2370   8.9118
    10.5490  10.9049  11.1064  11.2396  12.2698  13.2294  13.8900  14.2388
    14.5774  15.3060  21.8014  22.9210  23.5590  23.5681

          k = 0.2316 0.0116 0.1042 (   383 PWs)   bands (ev):

   -75.6030 -71.8654 -42.0637 -41.5728 -40.9050 -38.1549 -37.6727 -37.3023
    -5.2122  -4.5687   7.3431   7.4032   7.6286   8.1871   8.3078   8.6686
    10.7244  10.9104  11.0237  11.1250  12.2518  13.4153  13.7603  14.2383
    14.5173  15.3073  21.9334  23.0666  23.5997  23.6304

          k = 0.2316-0.0000 0.1158 (   380 PWs)   bands (ev):

   -75.6006 -71.8631 -42.0508 -41.5703 -40.8920 -38.1436 -37.6707 -37.2906
    -5.2091  -4.5655   7.3996   7.4914   7.4955   8.3094   8.3126   8.5447
    10.8558  10.9107  10.9409  11.0793  12.2478  13.5750  13.6280  14.2374
    14.4973  15.3083  21.9988  23.1366  23.6454  23.6468

          k = 0.2201 0.0116 0.1158 (   384 PWs)   bands (ev):

   -75.6038 -71.8661 -42.0680 -41.5740 -40.9094 -38.1588 -37.6738 -37.3062
    -5.2093  -4.5663   7.2307   7.4798   7.5859   8.1311   8.3120   8.6608
    10.7667  10.8386  11.0482  11.1783  12.2945  13.5740  13.6272  14.2392
    14.5367  15.3404  22.0032  23.1358  23.4709  23.6914

          k = 0.2085 0.0232 0.1158 (   378 PWs)   bands (ev):

   -75.5986 -71.8613 -42.0435 -41.5594 -40.8841 -38.1365 -37.6610 -37.2829
    -5.2091  -4.5678   6.9808   7.4829   7.6707   7.8539   8.3631   8.8156
    10.6679  10.7902  11.1217  11.4131  12.4369  13.5779  13.6432  14.2385
    14.6516  15.4386  22.0974  23.0808  23.2119  23.9223

          k = 0.1969 0.0347 0.1158 (   380 PWs)   bands (ev):

   -75.6004 -71.8630 -42.0462 -41.5734 -40.8855 -38.1388 -37.6743 -37.2833
    -5.2104  -4.5717   6.6901   7.4688   7.5397   7.6833   8.4217   8.9054
    10.6092  10.7625  11.1704  11.7005  12.6337  13.5862  13.6809  14.2273
    14.8270  15.5803  22.1671  22.5048  23.2622  23.3295

          k = 0.1853 0.0463 0.1158 (   380 PWs)   bands (ev):

   -75.6011 -71.8637 -42.0461 -41.5753 -40.8845 -38.1384 -37.6763 -37.2815
    -5.2119  -4.5765   6.3871   7.2239   7.4572   7.6551   8.5020   8.9483
    10.5905  10.7560  11.2090  12.0260  12.8539  13.6126  13.7411  14.2073
    15.0493  15.7436  21.8653  22.2907  22.6580  23.3657

          k = 0.1737 0.0579 0.1158 (   378 PWs)   bands (ev):

   -75.5999 -71.8626 -42.0402 -41.5673 -40.8772 -38.1325 -37.6694 -37.2739
    -5.2130  -4.5812   6.1050   6.9354   7.4338   7.5992   8.5781   8.9515
    10.6040  10.7605  11.2452  12.3684  13.0680  13.6611  13.8113  14.1855
    15.2989  15.9077  21.2270  21.9840  22.4174  23.4785

          k = 0.1622 0.0695 0.1158 (   380 PWs)   bands (ev):

   -75.6019 -71.8643 -42.0489 -41.5669 -40.8850 -38.1399 -37.6690 -37.2800
    -5.2146  -4.5864   5.8497   6.6778   7.4177   7.5308   8.6631   8.9271
    10.6388  10.7660  11.2805  12.7245  13.2553  13.7278  13.8752  14.1699
    15.5707  16.0560  20.5883  21.3078  22.5133  23.5670

          k = 0.1506 0.0811 0.1158 (   378 PWs)   bands (ev):

   -75.6003 -71.8629 -42.0442 -41.5537 -40.8793 -38.1353 -37.6571 -37.2739
    -5.2151  -4.5902   5.6393   6.4671   7.4002   7.4714   8.7355   8.9008
    10.6832  10.7687  11.3150  13.0624  13.4143  13.8039  13.9180  14.1720
    15.8425  16.1842  20.0403  20.7158  22.6152  23.6652

          k = 0.1390 0.0927 0.1158 (   380 PWs)   bands (ev):

   -75.6022 -71.8646 -42.0503 -41.5638 -40.8822 -38.1409 -37.6666 -37.2753
    -5.2189  -4.5966   5.4641   6.2919   7.3837   7.4187   8.7889   8.8680
    10.7249  10.7683  11.3395  13.3498  13.5245  13.8741  13.9348  14.1870
    16.0907  16.2744  19.5682  20.1986  22.6839  23.7331

          k = 0.1274 0.1042 0.1158 (   380 PWs)   bands (ev):

   -75.6022 -71.8647 -42.0495 -41.5627 -40.8810 -38.1399 -37.6657 -37.2738
    -5.2197  -4.5989   5.3665   6.1950   7.3729   7.3861   8.8240   8.8455
    10.7541  10.7672  11.3586  13.5490  13.5923  13.9236  13.9381  14.2065
    16.2766  16.3301  19.2666  19.8544  22.7329  23.7822

          k = 0.1158 0.1158 0.1158 (   368 PWs)   bands (ev):

   -75.5917 -71.8547 -42.0132 -41.5252 -40.8421 -38.1070 -37.6320 -37.2378
    -5.2181  -4.5979   5.3377   6.1665   7.3851   7.3942   8.8616   8.8623
    10.7639  10.7678  11.3666  13.6355  13.6541  13.9376  13.9451  14.2162
    16.3638  16.3710  19.1866  19.7540  22.8244  23.8701

          k = 0.1223 0.1030 0.1223 (   376 PWs)   bands (ev):

   -75.5987 -71.8614 -42.0397 -41.5460 -40.8703 -38.1308 -37.6508 -37.2637
    -5.2191  -4.5984   5.3656   6.1941   7.3737   7.3957   8.8250   8.8612
    10.7551  10.7670  11.3595  13.5523  13.6134  13.9241  13.9396  14.2077
    16.2817  16.3437  19.2683  19.8541  22.7591  23.8071

          k = 0.1287 0.0901 0.1287 (   378 PWs)   bands (ev):

   -75.6003 -71.8628 -42.0439 -41.5547 -40.8762 -38.1349 -37.6585 -37.2698
    -5.2185  -4.5963   5.4546   6.2825   7.3825   7.4224   8.7915   8.8765
    10.7269  10.7689  11.3415  13.3666  13.5443  13.8745  13.9395  14.1888
    16.1070  16.2877  19.5482  20.1743  22.7103  23.7584

          k = 0.1351 0.0772 0.1351 (   381 PWs)   bands (ev):

   -75.6025 -71.8650 -42.0544 -41.5610 -40.8891 -38.1443 -37.6641 -37.2824
    -5.2171  -4.5925   5.6087   6.4363   7.3885   7.4719   8.7278   8.9088
    10.6827  10.7733  11.3160  13.0866  13.4412  13.7931  13.9429  14.1671
    15.8666  16.2034  19.9633  20.6348  22.6276  23.6772

          k = 0.1416 0.0643 0.1416 (   375 PWs)   bands (ev):

   -75.5973 -71.8601 -42.0325 -41.5471 -40.8693 -38.1247 -37.6514 -37.2656
    -5.2139  -4.5863   5.8151   6.6434   7.4089   7.5466   8.6620   8.9629
    10.6270  10.7809  11.2878  12.7714  13.3136  13.6861  13.9510  14.1534
    15.6112  16.0975  20.5183  21.2296  22.5852  23.6353

          k = 0.1480 0.0515 0.1480 (   376 PWs)   bands (ev):

   -75.5978 -71.8606 -42.0369 -41.5495 -40.8743 -38.1290 -37.6535 -37.2709
    -5.2136  -4.5825   6.0548   6.8849   7.4052   7.6342   8.5511   9.0228
    10.5627  10.7926  11.2576  12.4219  13.1529  13.5555  13.9645  14.1488
    15.3492  15.9651  21.0840  21.8360  22.4688  23.5266

          k = 0.1544 0.0386 0.1544 (   380 PWs)   bands (ev):

   -75.6007 -71.8633 -42.0493 -41.5631 -40.8880 -38.1405 -37.6658 -37.2841
    -5.2143  -4.5797   6.3221   7.1572   7.3929   7.7295   8.4266   9.0821
    10.4913  10.8092  11.2349  12.0905  12.9609  13.4060  13.9847  14.1595
    15.1159  15.8091  21.6350  22.3354  22.4343  23.4024

          k = 0.1609 0.0257 0.1609 (   383 PWs)   bands (ev):

   -75.6029 -71.8654 -42.0632 -41.5685 -40.9023 -38.1533 -37.6705 -37.2975
    -5.2170  -4.5791   6.6106   7.3477   7.4551   7.8421   8.2723   9.1575
    10.4125  10.8309  11.2245  11.7961  12.7598  13.2420  14.0119  14.1818
    14.9273  15.6431  21.9093  22.4329  22.8581  23.4154

          k = 0.1673 0.0129 0.1673 (   378 PWs)   bands (ev):

   -75.5987 -71.8614 -42.0493 -41.5520 -40.8877 -38.1410 -37.6558 -37.2846
    -5.2226  -4.5818   6.9063   7.3071   7.7672   7.9687   8.1430   9.2458
    10.3259  10.8570  11.2252  11.5856  12.5520  13.0702  14.0449  14.2084
    14.8080  15.4688  21.7845  22.8463  22.8970  23.7438

          k = 0.1737 0.0000 0.1737 (   377 PWs)   bands (ev):

   -75.5977 -71.8604 -42.0460 -41.5493 -40.8848 -38.1383 -37.6530 -37.2824
    -5.2337  -4.5910   7.1787   7.2471   7.9680   8.0976   8.1156   9.3323
    10.2307  10.8851  11.2086  11.4880  12.3343  12.8948  14.0812  14.2255
    14.7640  15.2853  21.5264  22.6091  23.3044  23.5572

     Writing output data file pwscf.save

     init_run     :      1.54s CPU      1.57s WALL (       1 calls)
     electrons    :     12.19s CPU     12.39s WALL (       1 calls)

     Called by init_run:
     wfcinit      :      0.00s CPU      0.00s WALL (       1 calls)
     wfcinit:atom :      0.01s CPU      0.01s WALL (      89 calls)
     wfcinit:wfcr :      0.97s CPU      1.02s WALL (      89 calls)
     potinit      :      1.19s CPU      1.20s WALL (       1 calls)

     Called by electrons:
     c_bands      :     12.18s CPU     12.38s WALL (       1 calls)
     v_of_rho     :      0.00s CPU      0.00s WALL (       1 calls)
     v_h          :      0.00s CPU      0.00s WALL (       1 calls)
     v_xc         :      0.00s CPU      0.00s WALL (       1 calls)
     newd         :      0.14s CPU      0.14s WALL (       1 calls)
     PAW_pot      :      1.18s CPU      1.19s WALL (       1 calls)

     Called by c_bands:
     init_us_2    :      0.01s CPU      0.01s WALL (      89 calls)
     cegterg      :     11.09s CPU     11.24s WALL (      89 calls)

     Called by sum_band:

     Called by *egterg:
     h_psi        :      4.70s CPU      4.82s WALL (    1174 calls)
     s_psi        :      0.50s CPU      0.50s WALL (    1174 calls)
     g_psi        :      0.01s CPU      0.02s WALL (     996 calls)
     cdiaghg      :      5.54s CPU      5.58s WALL (    1085 calls)
     cegterg:over :      0.54s CPU      0.55s WALL (     996 calls)
     cegterg:upda :      0.31s CPU      0.32s WALL (     996 calls)
     cegterg:last :      0.24s CPU      0.24s WALL (     178 calls)

     Called by h_psi:
     h_psi:pot    :      4.70s CPU      4.81s WALL (    1174 calls)
     h_psi:calbec :      0.25s CPU      0.24s WALL (    1174 calls)
     vloc_psi     :      3.96s CPU      4.07s WALL (    1174 calls)
     add_vuspsi   :      0.49s CPU      0.50s WALL (    1174 calls)

     General routines
     calbec       :      0.24s CPU      0.23s WALL (    1174 calls)
     fft          :      0.01s CPU      0.01s WALL (      11 calls)
     fftw         :      3.40s CPU      3.44s WALL (   77404 calls)
     davcio       :      0.00s CPU      0.00s WALL (     178 calls)

     Parallel routines
     fft_scatter  :      0.54s CPU      0.77s WALL (   77415 calls)

     PAW routines
     PAW_pot      :      1.18s CPU      1.19s WALL (       1 calls)

     PWSCF        :    16.12s CPU        16.92s WALL


   This run was terminated on:  19:42:54  15Aug2017            

=------------------------------------------------------------------------------=
   JOB DONE.
=------------------------------------------------------------------------------=
