
     Program PWSCF v.6.1 (svn rev. 13369) starts on 15Aug2017 at 19:41:20 

     This program is part of the open-source Quantum ESPRESSO suite
     for quantum simulation of materials; please cite
         "P. Giannozzi et al., J. Phys.:Condens. Matter 21 395502 (2009);
          URL http://www.quantum-espresso.org", 
     in publications or presentations arising from this work. More details at
     http://www.quantum-espresso.org/quote

     Parallel version (MPI), running on     8 processors
     R & G space division:  proc/nbgrp/npool/nimage =       8
     Waiting for input...
     Reading input from standard input

     Current dimensions of program PWSCF are:
     Max number of different atomic species (ntypx) = 10
     Max number of k-points (npk) =  40000
     Max angular momentum in pseudopotentials (lmaxx) =  3
               file Fe.rel-pz-spn-kjpaw_psl.0.2.1.UPF: wavefunction(s)  3D renormalized
               file O.rel-pz-n-kjpaw_psl.0.1.UPF: wavefunction(s)  2P 2P renormalized

     Subspace diagonalization in iterative solution of the eigenvalue problem:
     a serial algorithm will be used


     Parallelization info
     --------------------
     sticks:   dense  smooth     PW     G-vecs:    dense   smooth      PW
     Min          33      33     12                  371      371      80
     Max          35      35     13                  372      372      81
     Sum         271     271     97                 2975     2975     645


     Title: 
     FeO                                                                        


     bravais-lattice index     =            0
     lattice parameter (alat)  =       1.8900  a.u.
     unit-cell volume          =     135.7822 (a.u.)^3
     number of atoms/cell      =            2
     number of atomic types    =            2
     number of electrons       =        22.00
     number of Kohn-Sham states=           30
     kinetic-energy cutoff     =      30.0000  Ry
     charge density cutoff     =     120.0000  Ry
     convergence threshold     =      1.0E-05
     mixing beta               =       0.7000
     number of iterations used =            8  plain     mixing
     Exchange-correlation      =  SLA  PZ   NOGX NOGC ( 1  1  0  0 0 0)
     Noncollinear calculation with spin-orbit


     celldm(1)=   1.890000  celldm(2)=   0.000000  celldm(3)=   0.000000
     celldm(4)=   0.000000  celldm(5)=   0.000000  celldm(6)=   0.000000

     crystal axes: (cart. coord. in units of alat)
               a(1) = (   2.158452   2.158452   0.000000 )  
               a(2) = (   2.158452   0.000000   2.158452 )  
               a(3) = (   0.000000   2.158452   2.158452 )  

     reciprocal axes: (cart. coord. in units 2 pi/alat)
               b(1) = (  0.231647  0.231647 -0.231647 )  
               b(2) = (  0.231647 -0.231647  0.231647 )  
               b(3) = ( -0.231647  0.231647  0.231647 )  


     PseudoPot. # 1 for Fe read from file:
     ./Fe.rel-pz-spn-kjpaw_psl.0.2.1.UPF
     MD5 check sum: 9a4fddefc36bb44b7d51970d02771829
     Pseudo is Projector augmented-wave + core cor, Zval = 16.0
     Generated using "atomic" code by A. Dal Corso  v.5.0.99 svn rev. 10869
     Shape of augmentation charge: PSQ
     Using radial grid of 1191 points, 10 beta functions with: 
                l(1) =   0
                l(2) =   0
                l(3) =   1
                l(4) =   1
                l(5) =   1
                l(6) =   1
                l(7) =   2
                l(8) =   2
                l(9) =   2
               l(10) =   2
     Q(r) pseudized with 0 coefficients 


     PseudoPot. # 2 for  O read from file:
     ./O.rel-pz-n-kjpaw_psl.0.1.UPF
     MD5 check sum: 2a679c24114a0cf947f0ee4744e9cd3f
     Pseudo is Projector augmented-wave + core cor, Zval =  6.0
     Generated using "atomic" code by A. Dal Corso  v.5.0.99 svn rev. 10869
     Shape of augmentation charge: BESSEL
     Using radial grid of 1095 points,  6 beta functions with: 
                l(1) =   0
                l(2) =   0
                l(3) =   1
                l(4) =   1
                l(5) =   1
                l(6) =   1
     Q(r) pseudized with 0 coefficients 


     atomic species   valence    mass     pseudopotential
        Fe            16.00     1.00000     Fe( 1.00)
        O              6.00     1.00000      O( 1.00)

     16 Sym. Ops., with inversion, found


                                    s                        frac. trans.

      isym =  1     identity                                     

 Time Reversal            0
 cryst.   s( 1) = (     1          0          0      )
                  (     0          1          0      )
                  (     0          0          1      )

 cart.    s( 1) = (  1.0000000  0.0000000  0.0000000 )
                  (  0.0000000  1.0000000  0.0000000 )
                  (  0.0000000  0.0000000  1.0000000 )


      isym =  2     180 deg rotation - cart. axis [0,0,1]        

 Time Reversal            0
 cryst.   s( 2) = (    -1          0          0      )
                  (    -1          0          1      )
                  (    -1          1          0      )

 cart.    s( 2) = ( -1.0000000  0.0000000  0.0000000 )
                  (  0.0000000 -1.0000000  0.0000000 )
                  (  0.0000000  0.0000000  1.0000000 )


      isym =  3     180 deg rotation - cart. axis [0,1,0]        

 Time Reversal            1
 cryst.   s( 3) = (     0         -1          1      )
                  (     0         -1          0      )
                  (     1         -1          0      )

 cart.    s( 3) = ( -1.0000000  0.0000000  0.0000000 )
                  (  0.0000000  1.0000000  0.0000000 )
                  (  0.0000000  0.0000000 -1.0000000 )


      isym =  4     180 deg rotation - cart. axis [1,0,0]        

 Time Reversal            1
 cryst.   s( 4) = (     0          1         -1      )
                  (     1          0         -1      )
                  (     0          0         -1      )

 cart.    s( 4) = (  1.0000000  0.0000000  0.0000000 )
                  (  0.0000000 -1.0000000  0.0000000 )
                  (  0.0000000  0.0000000 -1.0000000 )


      isym =  5     180 deg rotation - cart. axis [1,1,0]        

 Time Reversal            1
 cryst.   s( 5) = (     1          0          0      )
                  (     1         -1          0      )
                  (     1          0         -1      )

 cart.    s( 5) = (  0.0000000  1.0000000  0.0000000 )
                  (  1.0000000  0.0000000  0.0000000 )
                  (  0.0000000  0.0000000 -1.0000000 )


      isym =  6     180 deg rotation - cart. axis [1,-1,0]       

 Time Reversal            1
 cryst.   s( 6) = (    -1          0          0      )
                  (     0          0         -1      )
                  (     0         -1          0      )

 cart.    s( 6) = (  0.0000000 -1.0000000  0.0000000 )
                  ( -1.0000000  0.0000000  0.0000000 )
                  (  0.0000000  0.0000000 -1.0000000 )


      isym =  7      90 deg rotation - cart. axis [0,0,-1]       

 Time Reversal            0
 cryst.   s( 7) = (     0          1         -1      )
                  (    -1          1          0      )
                  (     0          1          0      )

 cart.    s( 7) = (  0.0000000  1.0000000  0.0000000 )
                  ( -1.0000000  0.0000000  0.0000000 )
                  (  0.0000000  0.0000000  1.0000000 )


      isym =  8      90 deg rotation - cart. axis [0,0,1]        

 Time Reversal            0
 cryst.   s( 8) = (     0         -1          1      )
                  (     0          0          1      )
                  (    -1          0          1      )

 cart.    s( 8) = (  0.0000000 -1.0000000  0.0000000 )
                  (  1.0000000  0.0000000  0.0000000 )
                  (  0.0000000  0.0000000  1.0000000 )


      isym =  9     inversion                                    

 Time Reversal            0
 cryst.   s( 9) = (    -1          0          0      )
                  (     0         -1          0      )
                  (     0          0         -1      )

 cart.    s( 9) = ( -1.0000000  0.0000000  0.0000000 )
                  (  0.0000000 -1.0000000  0.0000000 )
                  (  0.0000000  0.0000000 -1.0000000 )


      isym = 10     inv. 180 deg rotation - cart. axis [0,0,1]   

 Time Reversal            0
 cryst.   s(10) = (     1          0          0      )
                  (     1          0         -1      )
                  (     1         -1          0      )

 cart.    s(10) = (  1.0000000  0.0000000  0.0000000 )
                  (  0.0000000  1.0000000  0.0000000 )
                  (  0.0000000  0.0000000 -1.0000000 )


      isym = 11     inv. 180 deg rotation - cart. axis [0,1,0]   

 Time Reversal            1
 cryst.   s(11) = (     0          1         -1      )
                  (     0          1          0      )
                  (    -1          1          0      )

 cart.    s(11) = (  1.0000000  0.0000000  0.0000000 )
                  (  0.0000000 -1.0000000  0.0000000 )
                  (  0.0000000  0.0000000  1.0000000 )


      isym = 12     inv. 180 deg rotation - cart. axis [1,0,0]   

 Time Reversal            1
 cryst.   s(12) = (     0         -1          1      )
                  (    -1          0          1      )
                  (     0          0          1      )

 cart.    s(12) = ( -1.0000000  0.0000000  0.0000000 )
                  (  0.0000000  1.0000000  0.0000000 )
                  (  0.0000000  0.0000000  1.0000000 )


      isym = 13     inv. 180 deg rotation - cart. axis [1,1,0]   

 Time Reversal            1
 cryst.   s(13) = (    -1          0          0      )
                  (    -1          1          0      )
                  (    -1          0          1      )

 cart.    s(13) = (  0.0000000 -1.0000000  0.0000000 )
                  ( -1.0000000  0.0000000  0.0000000 )
                  (  0.0000000  0.0000000  1.0000000 )


      isym = 14     inv. 180 deg rotation - cart. axis [1,-1,0]  

 Time Reversal            1
 cryst.   s(14) = (     1          0          0      )
                  (     0          0          1      )
                  (     0          1          0      )

 cart.    s(14) = (  0.0000000  1.0000000  0.0000000 )
                  (  1.0000000  0.0000000  0.0000000 )
                  (  0.0000000  0.0000000  1.0000000 )


      isym = 15     inv.  90 deg rotation - cart. axis [0,0,-1]  

 Time Reversal            0
 cryst.   s(15) = (     0         -1          1      )
                  (     1         -1          0      )
                  (     0         -1          0      )

 cart.    s(15) = (  0.0000000 -1.0000000  0.0000000 )
                  (  1.0000000  0.0000000  0.0000000 )
                  (  0.0000000  0.0000000 -1.0000000 )


      isym = 16     inv.  90 deg rotation - cart. axis [0,0,1]   

 Time Reversal            0
 cryst.   s(16) = (     0          1         -1      )
                  (     0          0         -1      )
                  (     1          0         -1      )

 cart.    s(16) = (  0.0000000  1.0000000  0.0000000 )
                  ( -1.0000000  0.0000000  0.0000000 )
                  (  0.0000000  0.0000000 -1.0000000 )


   Cartesian axes

     site n.     atom                  positions (alat units)
         1           Fe  tau(   1) = (   0.0000000   0.0000000   0.0000000  )
         2           O   tau(   2) = (   0.0000000   0.0000000   2.1584524  )

   Crystallographic axes

     site n.     atom                  positions (cryst. coord.)
         1           Fe  tau(   1) = (  0.0000000  0.0000000  0.0000000  )
         2           O   tau(   2) = ( -0.5000000  0.5000000  0.5000000  )

     number of k points=   144  gaussian smearing, width (Ry)=  0.0200
                       cart. coord. in units 2pi/alat
        k(    1) = (   0.0144780   0.0144780   0.0144780), wk =   0.0039062
        k(    2) = (  -0.0144780   0.0434339   0.0434339), wk =   0.0078125
        k(    3) = (  -0.0434339   0.0723898   0.0723898), wk =   0.0078125
        k(    4) = (  -0.0723898   0.1013458   0.1013458), wk =   0.0078125
        k(    5) = (   0.1303017  -0.1013458  -0.1013458), wk =   0.0078125
        k(    6) = (   0.1013458  -0.0723898  -0.0723898), wk =   0.0078125
        k(    7) = (   0.0723898  -0.0434339  -0.0434339), wk =   0.0078125
        k(    8) = (   0.0434339  -0.0144780  -0.0144780), wk =   0.0078125
        k(    9) = (   0.0144780   0.0144780   0.0723898), wk =   0.0039062
        k(   10) = (  -0.0144780   0.0434339   0.1013458), wk =   0.0078125
        k(   11) = (  -0.0434339   0.0723898   0.1303017), wk =   0.0078125
        k(   12) = (   0.1592576  -0.1303017  -0.0723898), wk =   0.0078125
        k(   13) = (   0.1303017  -0.1013458  -0.0434339), wk =   0.0078125
        k(   14) = (   0.1013458  -0.0723898  -0.0144780), wk =   0.0078125
        k(   15) = (   0.0723898  -0.0434339   0.0144780), wk =   0.0078125
        k(   16) = (   0.0144780   0.0144780   0.1303017), wk =   0.0039062
        k(   17) = (  -0.0144780   0.0434339   0.1592576), wk =   0.0078125
        k(   18) = (   0.1882136  -0.1592576  -0.0434339), wk =   0.0078125
        k(   19) = (   0.1592576  -0.1303017  -0.0144780), wk =   0.0078125
        k(   20) = (   0.1303017  -0.1013458   0.0144780), wk =   0.0078125
        k(   21) = (   0.1013458  -0.0723898   0.0434339), wk =   0.0078125
        k(   22) = (   0.0144780   0.0144780   0.1882136), wk =   0.0039062
        k(   23) = (   0.2171695  -0.1882136  -0.0144780), wk =   0.0078125
        k(   24) = (   0.1882136  -0.1592576   0.0144780), wk =   0.0078125
        k(   25) = (   0.1592576  -0.1303017   0.0434339), wk =   0.0078125
        k(   26) = (   0.1303017  -0.1013458   0.0723898), wk =   0.0078125
        k(   27) = (   0.0144780   0.0144780  -0.2171695), wk =   0.0039062
        k(   28) = (  -0.0144780   0.0434339  -0.1882136), wk =   0.0078125
        k(   29) = (  -0.0434339   0.0723898  -0.1592576), wk =   0.0078125
        k(   30) = (   0.0144780   0.0144780  -0.1592576), wk =   0.0039062
        k(   31) = (  -0.0144780   0.0434339  -0.1303017), wk =   0.0078125
        k(   32) = (   0.0144780   0.0144780  -0.1013458), wk =   0.0039062
        k(   33) = (   0.0434339   0.0434339   0.0434339), wk =   0.0039062
        k(   34) = (   0.0144780   0.0723898   0.0723898), wk =   0.0078125
        k(   35) = (  -0.0144780   0.1013458   0.1013458), wk =   0.0078125
        k(   36) = (   0.1882136  -0.1013458  -0.1013458), wk =   0.0078125
        k(   37) = (   0.1592576  -0.0723898  -0.0723898), wk =   0.0078125
        k(   38) = (   0.1303017  -0.0434339  -0.0434339), wk =   0.0078125
        k(   39) = (   0.0434339   0.0434339   0.1013458), wk =   0.0039062
        k(   40) = (   0.0144780   0.0723898   0.1303017), wk =   0.0078125
        k(   41) = (   0.2171695  -0.1303017  -0.0723898), wk =   0.0078125
        k(   42) = (   0.1882136  -0.1013458  -0.0434339), wk =   0.0078125
        k(   43) = (   0.1592576  -0.0723898  -0.0144780), wk =   0.0078125
        k(   44) = (   0.0434339   0.0434339   0.1592576), wk =   0.0039062
        k(   45) = (   0.2461254  -0.1592576  -0.0434339), wk =   0.0078125
        k(   46) = (   0.2171695  -0.1303017  -0.0144780), wk =   0.0078125
        k(   47) = (   0.1882136  -0.1013458   0.0144780), wk =   0.0078125
        k(   48) = (   0.0434339   0.0434339  -0.2461254), wk =   0.0039062
        k(   49) = (   0.0144780   0.0723898  -0.2171695), wk =   0.0078125
        k(   50) = (   0.0434339   0.0434339  -0.1882136), wk =   0.0039062
        k(   51) = (   0.0723898   0.0723898   0.0723898), wk =   0.0039062
        k(   52) = (   0.0434339   0.1013458   0.1013458), wk =   0.0078125
        k(   53) = (   0.2461254  -0.1013458  -0.1013458), wk =   0.0078125
        k(   54) = (   0.2171695  -0.0723898  -0.0723898), wk =   0.0078125
        k(   55) = (   0.0723898   0.0723898   0.1303017), wk =   0.0039062
        k(   56) = (   0.2750814  -0.1303017  -0.0723898), wk =   0.0078125
        k(   57) = (   0.2461254  -0.1013458  -0.0434339), wk =   0.0078125
        k(   58) = (   0.0723898   0.0723898  -0.2750814), wk =   0.0039062
        k(   59) = (   0.1013458   0.1013458   0.1013458), wk =   0.0039062
        k(   60) = (   0.3040373  -0.1013458  -0.1013458), wk =   0.0078125
        k(   61) = (   0.0434339   0.0434339  -0.0144780), wk =   0.0039062
        k(   62) = (   0.0723898   0.0723898  -0.0434339), wk =   0.0039062
        k(   63) = (   0.1013458   0.1013458  -0.0723898), wk =   0.0039062
        k(   64) = (  -0.1013458  -0.1013458   0.1303017), wk =   0.0039062
        k(   65) = (  -0.0723898  -0.0723898   0.1013458), wk =   0.0039062
        k(   66) = (  -0.0434339  -0.0434339   0.0723898), wk =   0.0039062
        k(   67) = (  -0.0144780  -0.0144780   0.0434339), wk =   0.0039062
        k(   68) = (   0.0144780   0.0723898   0.0144780), wk =   0.0078125
        k(   69) = (   0.0434339   0.1013458  -0.0144780), wk =   0.0078125
        k(   70) = (   0.1013458  -0.0144780   0.0434339), wk =   0.0078125
        k(   71) = (   0.0723898   0.1303017  -0.0434339), wk =   0.0078125
        k(   72) = (   0.1303017  -0.0434339   0.0723898), wk =   0.0078125
        k(   73) = (  -0.1303017  -0.0723898   0.1592576), wk =   0.0078125
        k(   74) = (  -0.0723898   0.1592576  -0.1303017), wk =   0.0078125
        k(   75) = (  -0.1013458  -0.0434339   0.1303017), wk =   0.0078125
        k(   76) = (  -0.0434339   0.1303017  -0.1013458), wk =   0.0078125
        k(   77) = (  -0.0723898  -0.0144780   0.1013458), wk =   0.0078125
        k(   78) = (  -0.0144780   0.1013458  -0.0723898), wk =   0.0078125
        k(   79) = (  -0.0434339   0.0144780   0.0723898), wk =   0.0078125
        k(   80) = (   0.0144780   0.0723898  -0.0434339), wk =   0.0078125
        k(   81) = (   0.0144780   0.1303017   0.0144780), wk =   0.0078125
        k(   82) = (   0.0434339   0.1592576  -0.0144780), wk =   0.0078125
        k(   83) = (   0.1592576  -0.0144780   0.0434339), wk =   0.0078125
        k(   84) = (  -0.1592576  -0.0434339   0.1882136), wk =   0.0078125
        k(   85) = (  -0.0434339   0.1882136  -0.1592576), wk =   0.0078125
        k(   86) = (  -0.1303017  -0.0144780   0.1592576), wk =   0.0078125
        k(   87) = (  -0.0144780   0.1592576  -0.1303017), wk =   0.0078125
        k(   88) = (  -0.1013458   0.0144780   0.1303017), wk =   0.0078125
        k(   89) = (   0.0144780   0.1303017  -0.1013458), wk =   0.0078125
        k(   90) = (  -0.0723898   0.0434339   0.1013458), wk =   0.0078125
        k(   91) = (   0.0434339   0.1013458  -0.0723898), wk =   0.0078125
        k(   92) = (   0.0144780   0.1882136   0.0144780), wk =   0.0078125
        k(   93) = (  -0.1882136  -0.0144780   0.2171695), wk =   0.0078125
        k(   94) = (  -0.0144780   0.2171695  -0.1882136), wk =   0.0078125
        k(   95) = (  -0.1592576   0.0144780   0.1882136), wk =   0.0078125
        k(   96) = (   0.0144780   0.1882136  -0.1592576), wk =   0.0078125
        k(   97) = (  -0.1303017   0.0434339   0.1592576), wk =   0.0078125
        k(   98) = (   0.0434339   0.1592576  -0.1303017), wk =   0.0078125
        k(   99) = (  -0.1013458   0.0723898   0.1303017), wk =   0.0078125
        k(  100) = (   0.0723898   0.1303017  -0.1013458), wk =   0.0078125
        k(  101) = (   0.0144780  -0.2171695   0.0144780), wk =   0.0078125
        k(  102) = (   0.0434339  -0.1882136  -0.0144780), wk =   0.0078125
        k(  103) = (  -0.1882136  -0.0144780   0.0434339), wk =   0.0078125
        k(  104) = (   0.0723898  -0.1592576  -0.0434339), wk =   0.0078125
        k(  105) = (  -0.1592576  -0.0434339   0.0723898), wk =   0.0078125
        k(  106) = (   0.0144780  -0.1592576   0.0144780), wk =   0.0078125
        k(  107) = (   0.0434339  -0.1303017  -0.0144780), wk =   0.0078125
        k(  108) = (  -0.1303017  -0.0144780   0.0434339), wk =   0.0078125
        k(  109) = (   0.0144780  -0.1013458   0.0144780), wk =   0.0078125
        k(  110) = (   0.0723898   0.0723898   0.0144780), wk =   0.0039062
        k(  111) = (   0.1013458   0.1013458  -0.0144780), wk =   0.0039062
        k(  112) = (  -0.1013458  -0.1013458   0.1882136), wk =   0.0039062
        k(  113) = (  -0.0723898  -0.0723898   0.1592576), wk =   0.0039062
        k(  114) = (  -0.0434339  -0.0434339   0.1303017), wk =   0.0039062
        k(  115) = (   0.0434339   0.1013458   0.0434339), wk =   0.0078125
        k(  116) = (   0.0723898   0.1303017   0.0144780), wk =   0.0078125
        k(  117) = (   0.1303017   0.0144780   0.0723898), wk =   0.0078125
        k(  118) = (  -0.1303017  -0.0723898   0.2171695), wk =   0.0078125
        k(  119) = (  -0.0723898   0.2171695  -0.1303017), wk =   0.0078125
        k(  120) = (  -0.1013458  -0.0434339   0.1882136), wk =   0.0078125
        k(  121) = (  -0.0434339   0.1882136  -0.1013458), wk =   0.0078125
        k(  122) = (  -0.0723898  -0.0144780   0.1592576), wk =   0.0078125
        k(  123) = (  -0.0144780   0.1592576  -0.0723898), wk =   0.0078125
        k(  124) = (   0.0434339   0.1592576   0.0434339), wk =   0.0078125
        k(  125) = (  -0.1592576  -0.0434339   0.2461254), wk =   0.0078125
        k(  126) = (  -0.0434339   0.2461254  -0.1592576), wk =   0.0078125
        k(  127) = (  -0.1303017  -0.0144780   0.2171695), wk =   0.0078125
        k(  128) = (  -0.0144780   0.2171695  -0.1303017), wk =   0.0078125
        k(  129) = (  -0.1013458   0.0144780   0.1882136), wk =   0.0078125
        k(  130) = (   0.0144780   0.1882136  -0.1013458), wk =   0.0078125
        k(  131) = (   0.0434339  -0.2461254   0.0434339), wk =   0.0078125
        k(  132) = (   0.0723898  -0.2171695   0.0144780), wk =   0.0078125
        k(  133) = (  -0.2171695   0.0144780   0.0723898), wk =   0.0078125
        k(  134) = (   0.0434339  -0.1882136   0.0434339), wk =   0.0078125
        k(  135) = (   0.1013458   0.1013458   0.0434339), wk =   0.0039062
        k(  136) = (  -0.1013458  -0.1013458   0.2461254), wk =   0.0039062
        k(  137) = (  -0.0723898  -0.0723898   0.2171695), wk =   0.0039062
        k(  138) = (   0.0723898   0.1303017   0.0723898), wk =   0.0078125
        k(  139) = (  -0.1303017  -0.0723898   0.2750814), wk =   0.0078125
        k(  140) = (  -0.0723898   0.2750814  -0.1303017), wk =   0.0078125
        k(  141) = (  -0.1013458  -0.0434339   0.2461254), wk =   0.0078125
        k(  142) = (  -0.0434339   0.2461254  -0.1013458), wk =   0.0078125
        k(  143) = (   0.0723898  -0.2750814   0.0723898), wk =   0.0078125
        k(  144) = (  -0.1013458  -0.1013458   0.3040373), wk =   0.0039062

                       cryst. coord.
        k(    1) = (   0.0625000   0.0625000   0.0625000), wk =   0.0039062
        k(    2) = (   0.0625000   0.0625000   0.1875000), wk =   0.0078125
        k(    3) = (   0.0625000   0.0625000   0.3125000), wk =   0.0078125
        k(    4) = (   0.0625000   0.0625000   0.4375000), wk =   0.0078125
        k(    5) = (   0.0625000   0.0625000  -0.4375000), wk =   0.0078125
        k(    6) = (   0.0625000   0.0625000  -0.3125000), wk =   0.0078125
        k(    7) = (   0.0625000   0.0625000  -0.1875000), wk =   0.0078125
        k(    8) = (   0.0625000   0.0625000  -0.0625000), wk =   0.0078125
        k(    9) = (   0.0625000   0.1875000   0.1875000), wk =   0.0039062
        k(   10) = (   0.0625000   0.1875000   0.3125000), wk =   0.0078125
        k(   11) = (   0.0625000   0.1875000   0.4375000), wk =   0.0078125
        k(   12) = (   0.0625000   0.1875000  -0.4375000), wk =   0.0078125
        k(   13) = (   0.0625000   0.1875000  -0.3125000), wk =   0.0078125
        k(   14) = (   0.0625000   0.1875000  -0.1875000), wk =   0.0078125
        k(   15) = (   0.0625000   0.1875000  -0.0625000), wk =   0.0078125
        k(   16) = (   0.0625000   0.3125000   0.3125000), wk =   0.0039062
        k(   17) = (   0.0625000   0.3125000   0.4375000), wk =   0.0078125
        k(   18) = (   0.0625000   0.3125000  -0.4375000), wk =   0.0078125
        k(   19) = (   0.0625000   0.3125000  -0.3125000), wk =   0.0078125
        k(   20) = (   0.0625000   0.3125000  -0.1875000), wk =   0.0078125
        k(   21) = (   0.0625000   0.3125000  -0.0625000), wk =   0.0078125
        k(   22) = (   0.0625000   0.4375000   0.4375000), wk =   0.0039062
        k(   23) = (   0.0625000   0.4375000  -0.4375000), wk =   0.0078125
        k(   24) = (   0.0625000   0.4375000  -0.3125000), wk =   0.0078125
        k(   25) = (   0.0625000   0.4375000  -0.1875000), wk =   0.0078125
        k(   26) = (   0.0625000   0.4375000  -0.0625000), wk =   0.0078125
        k(   27) = (   0.0625000  -0.4375000  -0.4375000), wk =   0.0039062
        k(   28) = (   0.0625000  -0.4375000  -0.3125000), wk =   0.0078125
        k(   29) = (   0.0625000  -0.4375000  -0.1875000), wk =   0.0078125
        k(   30) = (   0.0625000  -0.3125000  -0.3125000), wk =   0.0039062
        k(   31) = (   0.0625000  -0.3125000  -0.1875000), wk =   0.0078125
        k(   32) = (   0.0625000  -0.1875000  -0.1875000), wk =   0.0039062
        k(   33) = (   0.1875000   0.1875000   0.1875000), wk =   0.0039062
        k(   34) = (   0.1875000   0.1875000   0.3125000), wk =   0.0078125
        k(   35) = (   0.1875000   0.1875000   0.4375000), wk =   0.0078125
        k(   36) = (   0.1875000   0.1875000  -0.4375000), wk =   0.0078125
        k(   37) = (   0.1875000   0.1875000  -0.3125000), wk =   0.0078125
        k(   38) = (   0.1875000   0.1875000  -0.1875000), wk =   0.0078125
        k(   39) = (   0.1875000   0.3125000   0.3125000), wk =   0.0039062
        k(   40) = (   0.1875000   0.3125000   0.4375000), wk =   0.0078125
        k(   41) = (   0.1875000   0.3125000  -0.4375000), wk =   0.0078125
        k(   42) = (   0.1875000   0.3125000  -0.3125000), wk =   0.0078125
        k(   43) = (   0.1875000   0.3125000  -0.1875000), wk =   0.0078125
        k(   44) = (   0.1875000   0.4375000   0.4375000), wk =   0.0039062
        k(   45) = (   0.1875000   0.4375000  -0.4375000), wk =   0.0078125
        k(   46) = (   0.1875000   0.4375000  -0.3125000), wk =   0.0078125
        k(   47) = (   0.1875000   0.4375000  -0.1875000), wk =   0.0078125
        k(   48) = (   0.1875000  -0.4375000  -0.4375000), wk =   0.0039062
        k(   49) = (   0.1875000  -0.4375000  -0.3125000), wk =   0.0078125
        k(   50) = (   0.1875000  -0.3125000  -0.3125000), wk =   0.0039062
        k(   51) = (   0.3125000   0.3125000   0.3125000), wk =   0.0039062
        k(   52) = (   0.3125000   0.3125000   0.4375000), wk =   0.0078125
        k(   53) = (   0.3125000   0.3125000  -0.4375000), wk =   0.0078125
        k(   54) = (   0.3125000   0.3125000  -0.3125000), wk =   0.0078125
        k(   55) = (   0.3125000   0.4375000   0.4375000), wk =   0.0039062
        k(   56) = (   0.3125000   0.4375000  -0.4375000), wk =   0.0078125
        k(   57) = (   0.3125000   0.4375000  -0.3125000), wk =   0.0078125
        k(   58) = (   0.3125000  -0.4375000  -0.4375000), wk =   0.0039062
        k(   59) = (   0.4375000   0.4375000   0.4375000), wk =   0.0039062
        k(   60) = (   0.4375000   0.4375000  -0.4375000), wk =   0.0078125
        k(   61) = (   0.1875000   0.0625000   0.0625000), wk =   0.0039062
        k(   62) = (   0.3125000   0.0625000   0.0625000), wk =   0.0039062
        k(   63) = (   0.4375000   0.0625000   0.0625000), wk =   0.0039062
        k(   64) = (  -0.4375000   0.0625000   0.0625000), wk =   0.0039062
        k(   65) = (  -0.3125000   0.0625000   0.0625000), wk =   0.0039062
        k(   66) = (  -0.1875000   0.0625000   0.0625000), wk =   0.0039062
        k(   67) = (  -0.0625000   0.0625000   0.0625000), wk =   0.0039062
        k(   68) = (   0.1875000   0.0625000   0.1875000), wk =   0.0078125
        k(   69) = (   0.3125000   0.0625000   0.1875000), wk =   0.0078125
        k(   70) = (   0.1875000   0.3125000   0.0625000), wk =   0.0078125
        k(   71) = (   0.4375000   0.0625000   0.1875000), wk =   0.0078125
        k(   72) = (   0.1875000   0.4375000   0.0625000), wk =   0.0078125
        k(   73) = (  -0.4375000   0.0625000   0.1875000), wk =   0.0078125
        k(   74) = (   0.1875000  -0.4375000   0.0625000), wk =   0.0078125
        k(   75) = (  -0.3125000   0.0625000   0.1875000), wk =   0.0078125
        k(   76) = (   0.1875000  -0.3125000   0.0625000), wk =   0.0078125
        k(   77) = (  -0.1875000   0.0625000   0.1875000), wk =   0.0078125
        k(   78) = (   0.1875000  -0.1875000   0.0625000), wk =   0.0078125
        k(   79) = (  -0.0625000   0.0625000   0.1875000), wk =   0.0078125
        k(   80) = (   0.1875000  -0.0625000   0.0625000), wk =   0.0078125
        k(   81) = (   0.3125000   0.0625000   0.3125000), wk =   0.0078125
        k(   82) = (   0.4375000   0.0625000   0.3125000), wk =   0.0078125
        k(   83) = (   0.3125000   0.4375000   0.0625000), wk =   0.0078125
        k(   84) = (  -0.4375000   0.0625000   0.3125000), wk =   0.0078125
        k(   85) = (   0.3125000  -0.4375000   0.0625000), wk =   0.0078125
        k(   86) = (  -0.3125000   0.0625000   0.3125000), wk =   0.0078125
        k(   87) = (   0.3125000  -0.3125000   0.0625000), wk =   0.0078125
        k(   88) = (  -0.1875000   0.0625000   0.3125000), wk =   0.0078125
        k(   89) = (   0.3125000  -0.1875000   0.0625000), wk =   0.0078125
        k(   90) = (  -0.0625000   0.0625000   0.3125000), wk =   0.0078125
        k(   91) = (   0.3125000  -0.0625000   0.0625000), wk =   0.0078125
        k(   92) = (   0.4375000   0.0625000   0.4375000), wk =   0.0078125
        k(   93) = (  -0.4375000   0.0625000   0.4375000), wk =   0.0078125
        k(   94) = (   0.4375000  -0.4375000   0.0625000), wk =   0.0078125
        k(   95) = (  -0.3125000   0.0625000   0.4375000), wk =   0.0078125
        k(   96) = (   0.4375000  -0.3125000   0.0625000), wk =   0.0078125
        k(   97) = (  -0.1875000   0.0625000   0.4375000), wk =   0.0078125
        k(   98) = (   0.4375000  -0.1875000   0.0625000), wk =   0.0078125
        k(   99) = (  -0.0625000   0.0625000   0.4375000), wk =   0.0078125
        k(  100) = (   0.4375000  -0.0625000   0.0625000), wk =   0.0078125
        k(  101) = (  -0.4375000   0.0625000  -0.4375000), wk =   0.0078125
        k(  102) = (  -0.3125000   0.0625000  -0.4375000), wk =   0.0078125
        k(  103) = (  -0.4375000  -0.3125000   0.0625000), wk =   0.0078125
        k(  104) = (  -0.1875000   0.0625000  -0.4375000), wk =   0.0078125
        k(  105) = (  -0.4375000  -0.1875000   0.0625000), wk =   0.0078125
        k(  106) = (  -0.3125000   0.0625000  -0.3125000), wk =   0.0078125
        k(  107) = (  -0.1875000   0.0625000  -0.3125000), wk =   0.0078125
        k(  108) = (  -0.3125000  -0.1875000   0.0625000), wk =   0.0078125
        k(  109) = (  -0.1875000   0.0625000  -0.1875000), wk =   0.0078125
        k(  110) = (   0.3125000   0.1875000   0.1875000), wk =   0.0039062
        k(  111) = (   0.4375000   0.1875000   0.1875000), wk =   0.0039062
        k(  112) = (  -0.4375000   0.1875000   0.1875000), wk =   0.0039062
        k(  113) = (  -0.3125000   0.1875000   0.1875000), wk =   0.0039062
        k(  114) = (  -0.1875000   0.1875000   0.1875000), wk =   0.0039062
        k(  115) = (   0.3125000   0.1875000   0.3125000), wk =   0.0078125
        k(  116) = (   0.4375000   0.1875000   0.3125000), wk =   0.0078125
        k(  117) = (   0.3125000   0.4375000   0.1875000), wk =   0.0078125
        k(  118) = (  -0.4375000   0.1875000   0.3125000), wk =   0.0078125
        k(  119) = (   0.3125000  -0.4375000   0.1875000), wk =   0.0078125
        k(  120) = (  -0.3125000   0.1875000   0.3125000), wk =   0.0078125
        k(  121) = (   0.3125000  -0.3125000   0.1875000), wk =   0.0078125
        k(  122) = (  -0.1875000   0.1875000   0.3125000), wk =   0.0078125
        k(  123) = (   0.3125000  -0.1875000   0.1875000), wk =   0.0078125
        k(  124) = (   0.4375000   0.1875000   0.4375000), wk =   0.0078125
        k(  125) = (  -0.4375000   0.1875000   0.4375000), wk =   0.0078125
        k(  126) = (   0.4375000  -0.4375000   0.1875000), wk =   0.0078125
        k(  127) = (  -0.3125000   0.1875000   0.4375000), wk =   0.0078125
        k(  128) = (   0.4375000  -0.3125000   0.1875000), wk =   0.0078125
        k(  129) = (  -0.1875000   0.1875000   0.4375000), wk =   0.0078125
        k(  130) = (   0.4375000  -0.1875000   0.1875000), wk =   0.0078125
        k(  131) = (  -0.4375000   0.1875000  -0.4375000), wk =   0.0078125
        k(  132) = (  -0.3125000   0.1875000  -0.4375000), wk =   0.0078125
        k(  133) = (  -0.4375000  -0.3125000   0.1875000), wk =   0.0078125
        k(  134) = (  -0.3125000   0.1875000  -0.3125000), wk =   0.0078125
        k(  135) = (   0.4375000   0.3125000   0.3125000), wk =   0.0039062
        k(  136) = (  -0.4375000   0.3125000   0.3125000), wk =   0.0039062
        k(  137) = (  -0.3125000   0.3125000   0.3125000), wk =   0.0039062
        k(  138) = (   0.4375000   0.3125000   0.4375000), wk =   0.0078125
        k(  139) = (  -0.4375000   0.3125000   0.4375000), wk =   0.0078125
        k(  140) = (   0.4375000  -0.4375000   0.3125000), wk =   0.0078125
        k(  141) = (  -0.3125000   0.3125000   0.4375000), wk =   0.0078125
        k(  142) = (   0.4375000  -0.3125000   0.3125000), wk =   0.0078125
        k(  143) = (  -0.4375000   0.3125000  -0.4375000), wk =   0.0078125
        k(  144) = (  -0.4375000   0.4375000   0.4375000), wk =   0.0039062

     Dense  grid:     2975 G-vectors     FFT dimensions: (  24,  24,  24)

     Estimated max dynamical RAM per process >       7.91MB

     Estimated total allocated dynamical RAM >      63.30MB
     Generating pointlists ...
     new r_m :   0.4125 (alat units)  0.7796 (a.u.) for type    1
     new r_m :   0.4125 (alat units)  0.7796 (a.u.) for type    2

     Check: negative/imaginary core charge=   -0.007906    0.000000

     Initial potential from superposition of free atoms

     starting charge   21.99965, renormalised to   22.00000

     negative rho (up, down):  0.000E+00 2.597E-01

 ==============================================================================
     atom number    1 relative position :    0.0000   0.0000   0.0000
     charge :     7.041069
     magnetization :          0.000000    0.000000    7.037444
     magnetization/charge:    0.000000    0.000000    0.999485
     polar coord.: r, theta, phi [deg] :     7.037444    0.000000  360.000000

 ==============================================================================

 ==============================================================================
     atom number    2 relative position :    0.0000   0.0000   2.1585
     charge :     1.974970
     magnetization :          0.000000    0.000000    0.029988
     magnetization/charge:    0.000000    0.000000    0.015184
     polar coord.: r, theta, phi [deg] :     0.029988    0.000000  360.000000

 ==============================================================================
     Starting wfc are   34 randomized atomic wfcs
     Checking if some PAW data can be deallocated... 
       node    0, deallocated PAW data for type:  2
       node    1, deallocated PAW data for type:  2
       node    2, deallocated PAW data for type:  2
       node    3, deallocated PAW data for type:  2
       node    4, deallocated PAW data for type:  1
       node    5, deallocated PAW data for type:  1
       node    6, deallocated PAW data for type:  1
       node    7, deallocated PAW data for type:  1

     total cpu time spent up to now is        4.8 secs

     per-process dynamical memory:    58.6 Mb

     Self-consistent Calculation

     iteration #  1     ecut=    30.00 Ry     beta=0.70
     Davidson diagonalization with overlap
     ethr =  1.00E-02,  avg # of iterations =  4.0

     negative rho (up, down):  0.000E+00 1.030E-01

     total cpu time spent up to now is       14.1 secs

     total energy              =    -363.68769845 Ry
     Harris-Foulkes estimate   =    -360.93248078 Ry
     estimated scf accuracy    <       4.45860192 Ry

     total magnetization       =     0.00    -0.00     5.62 Bohr mag/cell
     absolute magnetization    =     5.63 Bohr mag/cell

     iteration #  2     ecut=    30.00 Ry     beta=0.70
     Davidson diagonalization with overlap
     ethr =  1.00E-02,  avg # of iterations =  3.0

     negative rho (up, down):  0.000E+00 7.176E-02

     total cpu time spent up to now is       22.7 secs

     total energy              =    -362.64056193 Ry
     Harris-Foulkes estimate   =    -367.13397254 Ry
     estimated scf accuracy    <      20.21006739 Ry

     total magnetization       =    -0.00     0.00     0.50 Bohr mag/cell
     absolute magnetization    =     0.64 Bohr mag/cell

     iteration #  3     ecut=    30.00 Ry     beta=0.70
     Davidson diagonalization with overlap
     ethr =  1.00E-02,  avg # of iterations =  2.2

     negative rho (up, down):  0.000E+00 1.910E-02

     total cpu time spent up to now is       29.9 secs

     total energy              =    -365.17481393 Ry
     Harris-Foulkes estimate   =    -365.02480071 Ry
     estimated scf accuracy    <       0.43676176 Ry

     total magnetization       =     0.00    -0.00     4.06 Bohr mag/cell
     absolute magnetization    =     4.10 Bohr mag/cell

     iteration #  4     ecut=    30.00 Ry     beta=0.70
     Davidson diagonalization with overlap
     ethr =  1.99E-03,  avg # of iterations =  2.2

     negative rho (up, down):  0.000E+00 2.662E-02

     total cpu time spent up to now is       36.3 secs

     total energy              =    -365.19707238 Ry
     Harris-Foulkes estimate   =    -365.21453372 Ry
     estimated scf accuracy    <       0.04907005 Ry

     total magnetization       =    -0.00     0.00     3.97 Bohr mag/cell
     absolute magnetization    =     4.02 Bohr mag/cell

     iteration #  5     ecut=    30.00 Ry     beta=0.70
     Davidson diagonalization with overlap
     ethr =  2.23E-04,  avg # of iterations =  2.1

     negative rho (up, down):  0.000E+00 2.662E-02

     total cpu time spent up to now is       43.1 secs

     total energy              =    -365.20454656 Ry
     Harris-Foulkes estimate   =    -365.20588712 Ry
     estimated scf accuracy    <       0.00552981 Ry

     total magnetization       =     0.00     0.00     3.86 Bohr mag/cell
     absolute magnetization    =     3.91 Bohr mag/cell

     iteration #  6     ecut=    30.00 Ry     beta=0.70
     Davidson diagonalization with overlap
     ethr =  2.51E-05,  avg # of iterations =  2.7

     negative rho (up, down):  0.000E+00 2.662E-02

     total cpu time spent up to now is       50.2 secs

     total energy              =    -365.20524642 Ry
     Harris-Foulkes estimate   =    -365.20525348 Ry
     estimated scf accuracy    <       0.00048069 Ry

     total magnetization       =     0.00     0.00     3.87 Bohr mag/cell
     absolute magnetization    =     3.92 Bohr mag/cell

     iteration #  7     ecut=    30.00 Ry     beta=0.70
     Davidson diagonalization with overlap
     ethr =  2.18E-06,  avg # of iterations =  2.5

     negative rho (up, down):  0.000E+00 2.662E-02

     total cpu time spent up to now is       57.5 secs

     total energy              =    -365.20542883 Ry
     Harris-Foulkes estimate   =    -365.20540779 Ry
     estimated scf accuracy    <       0.00005371 Ry

     total magnetization       =     0.00    -0.00     3.88 Bohr mag/cell
     absolute magnetization    =     3.94 Bohr mag/cell

     iteration #  8     ecut=    30.00 Ry     beta=0.70
     Davidson diagonalization with overlap
     ethr =  2.44E-07,  avg # of iterations =  2.2

     negative rho (up, down):  0.000E+00 2.662E-02

 ==============================================================================
     atom number    1 relative position :    0.0000   0.0000   0.0000
     charge :     6.946610
     magnetization :         -0.000000   -0.000000    1.655003
     magnetization/charge:   -0.000000   -0.000000    0.238246
     polar coord.: r, theta, phi [deg] :     1.655003    0.000000  360.000000

 ==============================================================================

 ==============================================================================
     atom number    2 relative position :    0.0000   0.0000   2.1585
     charge :     1.987639
     magnetization :         -0.000000   -0.000000    0.160554
     magnetization/charge:   -0.000000   -0.000000    0.080776
     polar coord.: r, theta, phi [deg] :     0.160554    0.000000  360.000000

 ==============================================================================

     total cpu time spent up to now is       64.7 secs

     End of self-consistent calculation

          k = 0.0145 0.0145 0.0145 (   357 PWs)   bands (ev):

   -75.5709 -71.8345 -41.9357 -41.4543 -40.7731 -38.0254 -37.5559 -37.1693
    -6.4337  -5.8250   9.6637   9.6885   9.7143  10.0512  10.0615  10.4685
    10.6876  10.8621  10.8748  10.9393  10.9434  12.9253  12.9466  12.9870
    13.8055  13.8109  14.7568  15.5733  28.5221  29.1173

     occupation numbers 
     1.0000   1.0000   1.0000   1.0000   1.0000   1.0000   1.0000   1.0000
     1.0000   1.0000   1.0000   1.0000   1.0000   1.0000   1.0000   1.0000
     1.0000   1.0000   1.0000   1.0000   1.0000   0.9998   0.9998   0.9995
     0.1671   0.1602   0.0000   0.0000   0.0000   0.0000

          k =-0.0145 0.0434 0.0434 (   367 PWs)   bands (ev):

   -75.5791 -71.8421 -41.9710 -41.4920 -40.8086 -38.0591 -37.5923 -37.2027
    -6.2252  -5.6145   8.4214   8.7530   9.1597   9.4114  10.1085  10.1745
    10.2758  10.4230  10.7244  11.3114  12.0477  13.0488  13.1701  13.3233
    14.0652  14.6801  15.9639  16.7982  26.8302  27.6680

     occupation numbers 
     1.0000   1.0000   1.0000   1.0000   1.0000   1.0000   1.0000   1.0000
     1.0000   1.0000   1.0000   1.0000   1.0000   1.0000   1.0000   1.0000
     1.0000   1.0000   1.0000   1.0000   1.0000   0.9985   0.9903   0.9383
     0.0103   0.0000   0.0000   0.0000   0.0000   0.0000

          k =-0.0434 0.0724 0.0724 (   371 PWs)   bands (ev):

   -75.5792 -71.8416 -41.9927 -41.5076 -40.8279 -38.0820 -37.6100 -37.2217
    -5.7936  -5.1791   6.8815   7.7684   7.9568   8.2266   9.4313   9.5991
    10.3743  10.4981  10.9399  12.3651  13.0085  13.3996  13.4666  13.7394
    15.0089  15.6589  17.7022  18.5128  24.7590  25.6908

     occupation numbers 
     1.0000   1.0000   1.0000   1.0000   1.0000   1.0000   1.0000   1.0000
     1.0000   1.0000   1.0000   1.0000   1.0000   1.0000   1.0000   1.0000
     1.0000   1.0000   1.0000   1.0000   0.9993   0.8737   0.7869   0.2670
     0.0000   0.0000   0.0000   0.0000   0.0000   0.0000

          k =-0.0724 0.1013 0.1013 (   372 PWs)   bands (ev):

   -75.5766 -71.8388 -41.9997 -41.5196 -40.8337 -38.0914 -37.6239 -37.2287
    -5.3598  -4.7419   5.7466   6.5868   7.4967   7.5979   8.9671   9.0115
    10.6565  10.7203  11.2533  13.1574  13.5579  13.7799  13.8392  14.0853
    15.8569  16.2776  19.0366  19.7295  23.2159  24.2049

     occupation numbers 
     1.0000   1.0000   1.0000   1.0000   1.0000   1.0000   1.0000   1.0000
     1.0000   1.0000   1.0000   1.0000   1.0000   1.0000   1.0000   1.0000
     1.0000   1.0000   1.0000   0.9919   0.6261   0.2026   0.1271   0.0078
     0.0000   0.0000   0.0000   0.0000   0.0000   0.0000

          k = 0.1303-0.1013-0.1013 (   380 PWs)   bands (ev):

   -75.5828 -71.8445 -42.0318 -41.5450 -40.8638 -38.1218 -37.6475 -37.2561
    -5.2257  -4.6066   5.4177   6.2453   7.3776   7.4218   8.8092   8.8724
    10.7440  10.7894  11.3600  13.5038  13.5434  13.8936  13.9637  14.2086
    16.2391  16.2805  19.3629  19.9751  22.7340  23.7795

     occupation numbers 
     1.0000   1.0000   1.0000   1.0000   1.0000   1.0000   1.0000   1.0000
     1.0000   1.0000   1.0000   1.0000   1.0000   1.0000   1.0000   1.0000
     1.0000   1.0000   1.0000   0.7267   0.6543   0.0773   0.0369   0.0011
     0.0000   0.0000   0.0000   0.0000   0.0000   0.0000

          k = 0.1013-0.0724-0.0724 (   373 PWs)   bands (ev):

   -75.5781 -71.8404 -42.0005 -41.5149 -40.8378 -38.0914 -37.6175 -37.2331
    -5.4844  -4.8674   6.0554   6.9062   7.6102   7.7706   9.0538   9.2040
    10.5288  10.6902  11.1586  13.0246  13.3168  13.5500  13.8396  13.9718
    15.7066  16.0046  18.7061  19.4570  23.6291  24.5935

     occupation numbers 
     1.0000   1.0000   1.0000   1.0000   1.0000   1.0000   1.0000   1.0000
     1.0000   1.0000   1.0000   1.0000   1.0000   1.0000   1.0000   1.0000
     1.0000   1.0000   1.0000   0.9990   0.9423   0.6416   0.1266   0.0337
     0.0000   0.0000   0.0000   0.0000   0.0000   0.0000

          k = 0.0724-0.0434-0.0434 (   370 PWs)   bands (ev):

   -75.5797 -71.8422 -41.9881 -41.4979 -40.8262 -38.0767 -37.5987 -37.2207
    -5.9528  -5.3395   7.3718   8.2901   8.3104   8.4991   9.6886   9.8876
    10.2235  10.4324  10.8447  12.1450  12.5827  13.1205  13.5076  13.5607
    14.7784  15.2038  17.1661  18.0111  25.4360  26.3553

     occupation numbers 
     1.0000   1.0000   1.0000   1.0000   1.0000   1.0000   1.0000   1.0000
     1.0000   1.0000   1.0000   1.0000   1.0000   1.0000   1.0000   1.0000
     1.0000   1.0000   1.0000   1.0000   1.0000   0.9953   0.7199   0.6205
     0.0000   0.0000   0.0000   0.0000   0.0000   0.0000

          k = 0.0434-0.0145-0.0145 (   365 PWs)   bands (ev):

   -75.5773 -71.8406 -41.9692 -41.4684 -40.8068 -38.0566 -37.5690 -37.2007
    -6.3279  -5.7181   8.7087   9.4008   9.4465   9.8433   9.9948  10.2266
    10.6022  10.6610  10.6781  11.0655  11.5254  12.8520  13.1876  13.2054
    13.8519  14.2391  15.4409  16.3009  27.5565  28.3229

     occupation numbers 
     1.0000   1.0000   1.0000   1.0000   1.0000   1.0000   1.0000   1.0000
     1.0000   1.0000   1.0000   1.0000   1.0000   1.0000   1.0000   1.0000
     1.0000   1.0000   1.0000   1.0000   1.0000   1.0000   0.9876   0.9844
     0.1138   0.0006   0.0000   0.0000   0.0000   0.0000

          k = 0.0145 0.0145 0.0724 (   364 PWs)   bands (ev):

   -75.5755 -71.8387 -41.9507 -41.5097 -40.7878 -38.0418 -37.6107 -37.1843
    -6.1380  -5.5258   7.7670   8.8917   9.1539   9.2264   9.8920  10.3350
    10.3662  10.4218  10.9628  11.2576  11.8448  12.6773  13.5068  13.5737
    13.9478  14.5272  16.5810  17.5446  26.6067  27.5151

     occupation numbers 
     1.0000   1.0000   1.0000   1.0000   1.0000   1.0000   1.0000   1.0000
     1.0000   1.0000   1.0000   1.0000   1.0000   1.0000   1.0000   1.0000
     1.0000   1.0000   1.0000   1.0000   1.0000   1.0000   0.7213   0.5946
     0.0441   0.0000   0.0000   0.0000   0.0000   0.0000

          k =-0.0145 0.0434 0.1013 (   371 PWs)   bands (ev):

   -75.5787 -71.8413 -41.9781 -41.5303 -40.8148 -38.0685 -37.6326 -37.2102
    -5.8238  -5.2069   6.9364   7.9414   8.3829   8.7032   9.6736   9.9091
    10.0423  10.5731  11.1289  11.5519  12.5657  12.7720  13.7849  13.8882
    14.3140  15.2231  17.9999  18.9636  25.3556  26.3486

     occupation numbers 
     1.0000   1.0000   1.0000   1.0000   1.0000   1.0000   1.0000   1.0000
     1.0000   1.0000   1.0000   1.0000   1.0000   1.0000   1.0000   1.0000
     1.0000   1.0000   1.0000   1.0000   1.0000   1.0000   0.1954   0.0815
     0.0002   0.0000   0.0000   0.0000   0.0000   0.0000

          k =-0.0434 0.0724 0.1303 (   378 PWs)   bands (ev):

   -75.5812 -71.8432 -42.0102 -41.5499 -40.8466 -38.1004 -37.6529 -37.2408
    -5.4380  -4.8156   6.2131   7.0817   7.6298   7.9839   8.9444   9.2961
    10.3318  10.7784  11.2250  12.3412  13.1033  13.1837  13.9726  14.1378
    15.1142  15.8591  19.5063  20.3660  23.6763  24.6551

     occupation numbers 
     1.0000   1.0000   1.0000   1.0000   1.0000   1.0000   1.0000   1.0000
     1.0000   1.0000   1.0000   1.0000   1.0000   1.0000   1.0000   1.0000
     1.0000   1.0000   1.0000   1.0000   0.9964   0.9883   0.0333   0.0035
     0.0000   0.0000   0.0000   0.0000   0.0000   0.0000

          k = 0.1593-0.1303-0.0724 (   380 PWs)   bands (ev):

   -75.5825 -71.8443 -42.0300 -41.5505 -40.8656 -38.1201 -37.6536 -37.2591
    -5.2213  -4.5959   5.8197   6.6452   7.4046   7.5608   8.6702   8.9558
    10.6284  10.7995  11.2990  12.8117  13.2687  13.6728  13.9504  14.1901
    15.6464  16.0565  20.4508  21.1722  22.5596  23.6081

     occupation numbers 
     1.0000   1.0000   1.0000   1.0000   1.0000   1.0000   1.0000   1.0000
     1.0000   1.0000   1.0000   1.0000   1.0000   1.0000   1.0000   1.0000
     1.0000   1.0000   1.0000   1.0000   0.9660   0.3914   0.0428   0.0015
     0.0000   0.0000   0.0000   0.0000   0.0000   0.0000

          k = 0.1303-0.1013-0.0434 (   378 PWs)   bands (ev):

   -75.5809 -71.8429 -42.0246 -41.5277 -40.8620 -38.1145 -37.6305 -37.2563
    -5.3245  -4.7015   5.9932   6.8522   7.4950   7.7142   8.8383   9.0075
    10.5646  10.7620  11.2670  12.3890  13.4614  13.5867  13.9265  14.1186
    15.2015  16.2364  19.9600  20.7511  23.1949  24.1741

     occupation numbers 
     1.0000   1.0000   1.0000   1.0000   1.0000   1.0000   1.0000   1.0000
     1.0000   1.0000   1.0000   1.0000   1.0000   1.0000   1.0000   1.0000
     1.0000   1.0000   1.0000   1.0000   0.7947   0.5682   0.0554   0.0048
     0.0000   0.0000   0.0000   0.0000   0.0000   0.0000

          k = 0.1013-0.0724-0.0145 (   376 PWs)   bands (ev):

   -75.5816 -71.8440 -42.0143 -41.5069 -40.8539 -38.1025 -37.6079 -37.2481
    -5.6791  -5.0613   6.6659   7.6034   7.8466   8.3399   9.2786   9.5096
    10.3069  10.6572  11.1915  11.6278  13.1714  13.2212  13.7741  13.9508
    14.4442  15.8756  18.4841  19.3603  24.7733  25.7260

     occupation numbers 
     1.0000   1.0000   1.0000   1.0000   1.0000   1.0000   1.0000   1.0000
     1.0000   1.0000   1.0000   1.0000   1.0000   1.0000   1.0000   1.0000
     1.0000   1.0000   1.0000   1.0000   0.9901   0.9808   0.2112   0.0427
     0.0000   0.0000   0.0000   0.0000   0.0000   0.0000

          k = 0.0724-0.0434 0.0145 (   370 PWs)   bands (ev):

   -75.5802 -71.8429 -41.9877 -41.4940 -40.8267 -38.0758 -37.5940 -37.2212
    -6.0437  -5.4309   7.6108   8.5116   8.6389   8.8979   9.8776  10.1062
    10.1448  10.4261  10.9327  11.4476  12.4381  12.9526  13.4910  13.5813
    14.1822  15.0579  16.9012  17.7963  26.0262  26.9409

     occupation numbers 
     1.0000   1.0000   1.0000   1.0000   1.0000   1.0000   1.0000   1.0000
     1.0000   1.0000   1.0000   1.0000   1.0000   1.0000   1.0000   1.0000
     1.0000   1.0000   1.0000   1.0000   1.0000   0.9997   0.7483   0.5792
     0.0017   0.0000   0.0000   0.0000   0.0000   0.0000

          k = 0.0145 0.0145 0.1303 (   367 PWs)   bands (ev):

   -75.5723 -71.8352 -41.9598 -41.5315 -40.7974 -38.0530 -37.6371 -37.1953
    -5.6835  -5.0600   6.6860   7.6629   8.8756   9.0114   9.6395   9.9423
    10.0359  10.5718  11.2678  11.4244  11.9476  12.2279  13.9596  14.1281
    14.2321  14.8401  18.8867  19.9372  25.2486  26.3908

     occupation numbers 
     1.0000   1.0000   1.0000   1.0000   1.0000   1.0000   1.0000   1.0000
     1.0000   1.0000   1.0000   1.0000   1.0000   1.0000   1.0000   1.0000
     1.0000   1.0000   1.0000   1.0000   1.0000   1.0000   0.0387   0.0041
     0.0007   0.0000   0.0000   0.0000   0.0000   0.0000

          k =-0.0145 0.0434 0.1593 (   377 PWs)   bands (ev):

   -75.5780 -71.8402 -41.9936 -41.5689 -40.8303 -38.0856 -37.6735 -37.2264
    -5.4506  -4.8189   6.5896   7.4469   8.2822   8.5409   9.3835   9.6417
     9.9344  10.8025  11.2401  11.4911  12.1882  12.4226  14.1124  14.2406
    14.4799  15.1474  19.8604  20.8715  24.4025  25.0312

     occupation numbers 
     1.0000   1.0000   1.0000   1.0000   1.0000   1.0000   1.0000   1.0000
     1.0000   1.0000   1.0000   1.0000   1.0000   1.0000   1.0000   1.0000
     1.0000   1.0000   1.0000   1.0000   1.0000   1.0000   0.0052   0.0006
     0.0000   0.0000   0.0000   0.0000   0.0000   0.0000

          k = 0.1882-0.1593-0.0434 (   379 PWs)   bands (ev):

   -75.5802 -71.8421 -42.0164 -41.5652 -40.8541 -38.1077 -37.6701 -37.2496
    -5.2561  -4.6201   6.6541   7.4460   7.4990   8.0041   8.5371   9.2392
    10.2937  10.8862  11.2086  11.9027  12.4603  13.0087  14.0653  14.2446
    14.9801  15.3935  21.2054  22.1651  22.9747  23.9391

     occupation numbers 
     1.0000   1.0000   1.0000   1.0000   1.0000   1.0000   1.0000   1.0000
     1.0000   1.0000   1.0000   1.0000   1.0000   1.0000   1.0000   1.0000
     1.0000   1.0000   1.0000   1.0000   1.0000   0.9993   0.0103   0.0006
     0.0000   0.0000   0.0000   0.0000   0.0000   0.0000

          k = 0.1593-0.1303-0.0145 (   382 PWs)   bands (ev):

   -75.5829 -71.8446 -42.0341 -41.5593 -40.8718 -38.1242 -37.6624 -37.2662
    -5.2205  -4.5877   6.4230   7.3172   7.4681   7.6475   8.3621   8.9949
    10.6358  10.7462  11.2941  11.6748  13.1016  13.6366  13.8244  14.1792
    14.7914  15.9643  21.7118  22.6323  22.8725  23.8313

     occupation numbers 
     1.0000   1.0000   1.0000   1.0000   1.0000   1.0000   1.0000   1.0000
     1.0000   1.0000   1.0000   1.0000   1.0000   1.0000   1.0000   1.0000
     1.0000   1.0000   1.0000   1.0000   0.9965   0.4652   0.1437   0.0018
     0.0000   0.0000   0.0000   0.0000   0.0000   0.0000

          k = 0.1303-0.1013 0.0145 (   380 PWs)   bands (ev):

   -75.5822 -71.8441 -42.0273 -41.5345 -40.8663 -38.1167 -37.6364 -37.2607
    -5.3656  -4.7410   6.2373   7.1400   7.5614   7.8518   8.8704   8.9977
    10.5306  10.7677  11.3207  11.7119  13.4299  13.5267  13.9592  14.0725
    14.6699  16.2247  20.1165  20.9757  23.8542  24.7830

     occupation numbers 
     1.0000   1.0000   1.0000   1.0000   1.0000   1.0000   1.0000   1.0000
     1.0000   1.0000   1.0000   1.0000   1.0000   1.0000   1.0000   1.0000
     1.0000   1.0000   1.0000   1.0000   0.8382   0.6856   0.0389   0.0093
     0.0000   0.0000   0.0000   0.0000   0.0000   0.0000

          k = 0.1013-0.0724 0.0434 (   374 PWs)   bands (ev):

   -75.5798 -71.8421 -42.0035 -41.5141 -40.8414 -38.0934 -37.6156 -37.2365
    -5.6065  -4.9892   6.4258   7.3108   7.7426   8.0687   9.1672   9.4086
    10.3759  10.6498  11.1068  12.3934  13.2162  13.3122  13.7593  13.9602
    15.0829  15.9031  18.5286  19.3599  24.2065  25.1571

     occupation numbers 
     1.0000   1.0000   1.0000   1.0000   1.0000   1.0000   1.0000   1.0000
     1.0000   1.0000   1.0000   1.0000   1.0000   1.0000   1.0000   1.0000
     1.0000   1.0000   1.0000   1.0000   0.9820   0.9450   0.2342   0.0384
     0.0000   0.0000   0.0000   0.0000   0.0000   0.0000

          k = 0.0145 0.0145 0.1882 (   374 PWs)   bands (ev):

   -75.5746 -71.8369 -41.9819 -41.5743 -40.8190 -38.0757 -37.6813 -37.2167
    -5.3955  -4.7546   6.8319   7.5561   8.7954   9.0774   9.5317   9.7608
     9.8947  10.7532  11.1330  11.2079  11.4808  11.8742  14.1678  14.2596
    14.3186  14.7606  19.9253  21.0133  24.0380  24.5849

     occupation numbers 
     1.0000   1.0000   1.0000   1.0000   1.0000   1.0000   1.0000   1.0000
     1.0000   1.0000   1.0000   1.0000   1.0000   1.0000   1.0000   1.0000
     1.0000   1.0000   1.0000   1.0000   1.0000   1.0000   0.0022   0.0004
     0.0001   0.0000   0.0000   0.0000   0.0000   0.0000

          k = 0.2172-0.1882-0.0145 (   373 PWs)   bands (ev):

   -75.5740 -71.8362 -41.9848 -41.5702 -40.8227 -38.0791 -37.6780 -37.2210
    -5.3069  -4.6623   7.0930   7.7394   8.2468   8.5766   9.2301   9.5783
     9.9598  10.9713  11.0816  11.1554  11.5852  12.2454  14.1919  14.2819
    14.4636  14.8051  20.4765  21.5779  23.6107  24.2277

     occupation numbers 
     1.0000   1.0000   1.0000   1.0000   1.0000   1.0000   1.0000   1.0000
     1.0000   1.0000   1.0000   1.0000   1.0000   1.0000   1.0000   1.0000
     1.0000   1.0000   1.0000   1.0000   1.0000   1.0000   0.0015   0.0003
     0.0000   0.0000   0.0000   0.0000   0.0000   0.0000

          k = 0.1882-0.1593 0.0145 (   379 PWs)   bands (ev):

   -75.5801 -71.8419 -42.0183 -41.5707 -40.8558 -38.1099 -37.6759 -37.2515
    -5.2331  -4.5931   7.0526   7.3550   7.8374   8.0341   8.2552   9.2415
    10.3052  10.9014  11.1961  11.5186  12.3423  12.9745  14.0554  14.2524
    14.7660  15.3124  21.5421  22.6156  23.1761  23.7883

     occupation numbers 
     1.0000   1.0000   1.0000   1.0000   1.0000   1.0000   1.0000   1.0000
     1.0000   1.0000   1.0000   1.0000   1.0000   1.0000   1.0000   1.0000
     1.0000   1.0000   1.0000   1.0000   1.0000   0.9996   0.0118   0.0005
     0.0000   0.0000   0.0000   0.0000   0.0000   0.0000

          k = 0.1593-0.1303 0.0434 (   380 PWs)   bands (ev):

   -75.5821 -71.8438 -42.0323 -41.5481 -40.8696 -38.1223 -37.6518 -37.2638
    -5.2139  -4.5840   6.1486   6.9882   7.4422   7.6124   8.5321   8.9762
    10.6150  10.7752  11.2604  12.2365  13.1468  13.6380  13.8763  14.1746
    15.1988  15.9804  21.3083  22.0827  22.4218  23.4748

     occupation numbers 
     1.0000   1.0000   1.0000   1.0000   1.0000   1.0000   1.0000   1.0000
     1.0000   1.0000   1.0000   1.0000   1.0000   1.0000   1.0000   1.0000
     1.0000   1.0000   1.0000   1.0000   0.9930   0.4623   0.0912   0.0020
     0.0000   0.0000   0.0000   0.0000   0.0000   0.0000

          k = 0.1303-0.1013 0.0724 (   376 PWs)   bands (ev):

   -75.5795 -71.8415 -42.0186 -41.5278 -40.8537 -38.1095 -37.6312 -37.2480
    -5.2664  -4.6456   5.6536   6.4864   7.4168   7.5429   8.8104   8.9544
    10.6567  10.7846  11.3106  13.0906  13.5033  13.7394  13.9566  14.1662
    15.8360  16.2514  19.6506  20.3427  22.8706  23.8913

     occupation numbers 
     1.0000   1.0000   1.0000   1.0000   1.0000   1.0000   1.0000   1.0000
     1.0000   1.0000   1.0000   1.0000   1.0000   1.0000   1.0000   1.0000
     1.0000   1.0000   1.0000   0.9970   0.7274   0.2670   0.0400   0.0023
     0.0000   0.0000   0.0000   0.0000   0.0000   0.0000

          k = 0.0145 0.0145-0.2172 (   379 PWs)   bands (ev):

   -75.5783 -71.8404 -42.0014 -41.5899 -40.8390 -38.0939 -37.6963 -37.2354
    -5.3458  -4.6997   7.0414   7.6548   8.7716   9.1088   9.5341   9.7131
     9.8573  10.8320  11.0236  11.0883  11.2241  11.7941  14.2211  14.2502
    14.3006  14.6406  19.9789  21.1038  23.6189  24.4497

     occupation numbers 
     1.0000   1.0000   1.0000   1.0000   1.0000   1.0000   1.0000   1.0000
     1.0000   1.0000   1.0000   1.0000   1.0000   1.0000   1.0000   1.0000
     1.0000   1.0000   1.0000   1.0000   1.0000   1.0000   0.0009   0.0005
     0.0002   0.0000   0.0000   0.0000   0.0000   0.0000

          k =-0.0145 0.0434-0.1882 (   379 PWs)   bands (ev):

   -75.5786 -71.8406 -41.9998 -41.5835 -40.8376 -38.0922 -37.6888 -37.2340
    -5.3510  -4.7113   6.8171   7.5605   8.2589   8.5437   9.2810   9.5823
     9.9331  10.8896  11.1574  11.3399  11.8266  12.3039  14.1717  14.2770
    14.4836  14.9612  20.2911  21.3439  23.8982  24.3917

     occupation numbers 
     1.0000   1.0000   1.0000   1.0000   1.0000   1.0000   1.0000   1.0000
     1.0000   1.0000   1.0000   1.0000   1.0000   1.0000   1.0000   1.0000
     1.0000   1.0000   1.0000   1.0000   1.0000   1.0000   0.0021   0.0003
     0.0000   0.0000   0.0000   0.0000   0.0000   0.0000

          k =-0.0434 0.0724-0.1593 (   378 PWs)   bands (ev):

   -75.5800 -71.8420 -42.0092 -41.5596 -40.8461 -38.1006 -37.6638 -37.2414
    -5.3195  -4.6902   6.3144   7.1462   7.5688   7.9717   8.7554   9.2466
    10.2991  10.8547  11.2473  12.2101  12.7686  13.0796  14.0629  14.2214
    15.1022  15.6321  20.4369  21.3249  23.2501  24.2415

     occupation numbers 
     1.0000   1.0000   1.0000   1.0000   1.0000   1.0000   1.0000   1.0000
     1.0000   1.0000   1.0000   1.0000   1.0000   1.0000   1.0000   1.0000
     1.0000   1.0000   1.0000   1.0000   1.0000   0.9975   0.0106   0.0009
     0.0000   0.0000   0.0000   0.0000   0.0000   0.0000

          k = 0.0145 0.0145-0.1593 (   377 PWs)   bands (ev):

   -75.5781 -71.8404 -41.9806 -41.5963 -40.8170 -38.0739 -37.6994 -37.2140
    -5.5077  -4.8753   6.6124   7.4708   8.8152   9.0119   9.5533   9.8156
     9.9275  10.6648  11.2354  11.3439  11.7674  12.0239  14.0811  14.2358
    14.3081  14.8556  19.5641  20.6276  24.7967  25.0329

     occupation numbers 
     1.0000   1.0000   1.0000   1.0000   1.0000   1.0000   1.0000   1.0000
     1.0000   1.0000   1.0000   1.0000   1.0000   1.0000   1.0000   1.0000
     1.0000   1.0000   1.0000   1.0000   1.0000   1.0000   0.0082   0.0007
     0.0002   0.0000   0.0000   0.0000   0.0000   0.0000

          k =-0.0145 0.0434-0.1303 (   373 PWs)   bands (ev):

   -75.5769 -71.8393 -41.9852 -41.5384 -40.8217 -38.0764 -37.6430 -37.2174
    -5.6136  -4.9903   6.5893   7.5352   8.3160   8.5822   9.5145   9.7375
     9.9729  10.6981  11.2396  11.5658  12.4660  12.5854  13.9878  14.1204
    14.4242  15.2449  19.0836  20.0769  24.8368  25.9007

     occupation numbers 
     1.0000   1.0000   1.0000   1.0000   1.0000   1.0000   1.0000   1.0000
     1.0000   1.0000   1.0000   1.0000   1.0000   1.0000   1.0000   1.0000
     1.0000   1.0000   1.0000   1.0000   1.0000   1.0000   0.0279   0.0046
     0.0000   0.0000   0.0000   0.0000   0.0000   0.0000

          k = 0.0145 0.0145-0.1013 (   364 PWs)   bands (ev):

   -75.5734 -71.8363 -41.9504 -41.5196 -40.7873 -38.0430 -37.6230 -37.1848
    -5.9072  -5.2906   7.0633   8.1260   8.9806   9.0804   9.7630  10.1171
    10.2028  10.4730  11.1736  11.3980  11.9800  12.4574  13.7829  13.8997
    14.0897  14.7243  17.7857  18.8174  25.8351  26.8689

     occupation numbers 
     1.0000   1.0000   1.0000   1.0000   1.0000   1.0000   1.0000   1.0000
     1.0000   1.0000   1.0000   1.0000   1.0000   1.0000   1.0000   1.0000
     1.0000   1.0000   1.0000   1.0000   1.0000   1.0000   0.1983   0.0728
     0.0073   0.0000   0.0000   0.0000   0.0000   0.0000

          k = 0.0434 0.0434 0.0434 (   362 PWs)   bands (ev):

   -75.5749 -71.8379 -41.9608 -41.4789 -40.7978 -38.0507 -37.5808 -37.1934
    -6.1252  -5.5138   8.0803   8.6383   8.6501   8.9961  10.0603  10.0648
    10.2456  10.2472  10.6757  12.0900  12.0990  13.2212  13.2348  13.2942
    14.7144  14.7236  16.3784  17.1859  26.1809  27.0556

     occupation numbers 
     1.0000   1.0000   1.0000   1.0000   1.0000   1.0000   1.0000   1.0000
     1.0000   1.0000   1.0000   1.0000   1.0000   1.0000   1.0000   1.0000
     1.0000   1.0000   1.0000   1.0000   1.0000   0.9808   0.9773   0.9546
     0.0000   0.0000   0.0000   0.0000   0.0000   0.0000

          k = 0.0145 0.0724 0.0724 (   372 PWs)   bands (ev):

   -75.5805 -71.8430 -41.9911 -41.5134 -40.8283 -38.0799 -37.6148 -37.2224
    -5.8763  -5.2619   7.1681   8.0293   8.1132   8.5875   9.5070   9.8074
    10.2651  10.5347  11.0483  11.5512  12.9863  13.2564  13.4842  13.7649
    14.3164  15.6394  17.5608  18.4111  25.3430  26.2721

     occupation numbers 
     1.0000   1.0000   1.0000   1.0000   1.0000   1.0000   1.0000   1.0000
     1.0000   1.0000   1.0000   1.0000   1.0000   1.0000   1.0000   1.0000
     1.0000   1.0000   1.0000   1.0000   0.9995   0.9705   0.7594   0.2254
     0.0001   0.0000   0.0000   0.0000   0.0000   0.0000

          k =-0.0145 0.1013 0.1013 (   376 PWs)   bands (ev):

   -75.5797 -71.8419 -42.0106 -41.5198 -40.8486 -38.0999 -37.6230 -37.2429
    -5.5091  -4.8891   6.3581   7.2735   7.6217   8.0471   9.0868   9.1492
    10.4612  10.7227  11.2775  11.6949  13.4896  13.5347  13.7860  14.0380
    14.5724  16.2461  19.2586  20.0967  24.2463  25.1779

     occupation numbers 
     1.0000   1.0000   1.0000   1.0000   1.0000   1.0000   1.0000   1.0000
     1.0000   1.0000   1.0000   1.0000   1.0000   1.0000   1.0000   1.0000
     1.0000   1.0000   1.0000   1.0000   0.7507   0.6708   0.1937   0.0149
     0.0000   0.0000   0.0000   0.0000   0.0000   0.0000

          k = 0.1882-0.1013-0.1013 (   380 PWs)   bands (ev):

   -75.5824 -71.8441 -42.0283 -41.5493 -40.8650 -38.1187 -37.6515 -37.2593
    -5.2453  -4.6196   5.9556   6.8087   7.5092   7.5312   8.6793   8.9314
    10.7006  10.7118  11.2839  12.3561  13.4570  13.8204  13.8462  14.0966
    15.2343  16.2572  20.5524  21.3230  22.7843  23.7897

     occupation numbers 
     1.0000   1.0000   1.0000   1.0000   1.0000   1.0000   1.0000   1.0000
     1.0000   1.0000   1.0000   1.0000   1.0000   1.0000   1.0000   1.0000
     1.0000   1.0000   1.0000   1.0000   0.8011   0.1485   0.1196   0.0066
     0.0000   0.0000   0.0000   0.0000   0.0000   0.0000

          k = 0.1593-0.0724-0.0724 (   381 PWs)   bands (ev):

   -75.5832 -71.8449 -42.0376 -41.5414 -40.8746 -38.1272 -37.6433 -37.2683
    -5.2636  -4.6366   6.0251   6.8463   7.4222   7.7517   8.6582   9.1156
    10.4549  10.8468  11.2745  12.7499  12.9142  13.3647  14.0429  14.2072
    15.6190  15.7072  20.4504  21.2470  22.7663  23.7872

     occupation numbers 
     1.0000   1.0000   1.0000   1.0000   1.0000   1.0000   1.0000   1.0000
     1.0000   1.0000   1.0000   1.0000   1.0000   1.0000   1.0000   1.0000
     1.0000   1.0000   1.0000   1.0000   0.9999   0.9075   0.0139   0.0011
     0.0000   0.0000   0.0000   0.0000   0.0000   0.0000

          k = 0.1303-0.0434-0.0434 (   380 PWs)   bands (ev):

   -75.5826 -71.8447 -42.0214 -41.5332 -40.8604 -38.1106 -37.6332 -37.2549
    -5.5474  -4.9246   6.4527   7.3577   7.9429   8.3195   9.1750   9.5868
    10.0759  10.7560  11.1875  12.1068  12.6162  12.8006  13.9841  14.1177
    14.8680  15.3927  19.2114  20.1532  24.2708  25.2779

     occupation numbers 
     1.0000   1.0000   1.0000   1.0000   1.0000   1.0000   1.0000   1.0000
     1.0000   1.0000   1.0000   1.0000   1.0000   1.0000   1.0000   1.0000
     1.0000   1.0000   1.0000   1.0000   1.0000   1.0000   0.0291   0.0048
     0.0000   0.0000   0.0000   0.0000   0.0000   0.0000

          k = 0.0434 0.0434 0.1013 (   373 PWs)   bands (ev):

   -75.5800 -71.8424 -41.9898 -41.5292 -40.8271 -38.0796 -37.6315 -37.2217
    -5.7442  -5.1273   6.7600   7.7017   8.0883   8.3846   9.4135   9.7224
    10.1530  10.6102  11.0544  12.1649  12.7417  12.9604  13.7733  13.8881
    14.8383  15.3997  18.1811  19.0891  24.8010  25.7679

     occupation numbers 
     1.0000   1.0000   1.0000   1.0000   1.0000   1.0000   1.0000   1.0000
     1.0000   1.0000   1.0000   1.0000   1.0000   1.0000   1.0000   1.0000
     1.0000   1.0000   1.0000   1.0000   1.0000   0.9997   0.2125   0.0816
     0.0000   0.0000   0.0000   0.0000   0.0000   0.0000

          k = 0.0145 0.0724 0.1303 (   378 PWs)   bands (ev):

   -75.5807 -71.8428 -42.0031 -41.5544 -40.8404 -38.0936 -37.6572 -37.2352
    -5.4951  -4.8718   6.4161   7.3272   7.8012   8.1787   9.1319   9.3204
    10.3014  10.7590  11.2776  11.6546  13.0711  13.0844  13.9942  14.1112
    14.5614  15.8435  19.4952  20.4047  24.3100  25.2954

     occupation numbers 
     1.0000   1.0000   1.0000   1.0000   1.0000   1.0000   1.0000   1.0000
     1.0000   1.0000   1.0000   1.0000   1.0000   1.0000   1.0000   1.0000
     1.0000   1.0000   1.0000   1.0000   0.9978   0.9973   0.0258   0.0053
     0.0000   0.0000   0.0000   0.0000   0.0000   0.0000

          k = 0.2172-0.1303-0.0724 (   381 PWs)   bands (ev):

   -75.5823 -71.8441 -42.0308 -41.5495 -40.8690 -38.1201 -37.6537 -37.2629
    -5.2723  -4.6414   6.3833   7.2597   7.5816   7.7365   8.6630   8.9601
    10.5705  10.7771  11.2880  11.6537  13.0712  13.4548  13.9197  14.1937
    14.7185  15.9397  21.0468  21.9532  23.4344  24.3768

     occupation numbers 
     1.0000   1.0000   1.0000   1.0000   1.0000   1.0000   1.0000   1.0000
     1.0000   1.0000   1.0000   1.0000   1.0000   1.0000   1.0000   1.0000
     1.0000   1.0000   1.0000   1.0000   0.9978   0.8044   0.0595   0.0014
     0.0000   0.0000   0.0000   0.0000   0.0000   0.0000

          k = 0.1882-0.1013-0.0434 (   380 PWs)   bands (ev):

   -75.5815 -71.8434 -42.0345 -41.5432 -40.8737 -38.1246 -37.6467 -37.2688
    -5.2171  -4.5828   6.4872   7.3188   7.4467   7.7221   8.4717   8.9861
    10.5516  10.8022  11.2132  11.9409  12.7732  13.4698  13.8487  14.2335
    14.9959  15.6791  21.8228  22.4623  22.6990  23.4737

     occupation numbers 
     1.0000   1.0000   1.0000   1.0000   1.0000   1.0000   1.0000   1.0000
     1.0000   1.0000   1.0000   1.0000   1.0000   1.0000   1.0000   1.0000
     1.0000   1.0000   1.0000   1.0000   1.0000   0.7821   0.1170   0.0007
     0.0000   0.0000   0.0000   0.0000   0.0000   0.0000

          k = 0.1593-0.0724-0.0145 (   381 PWs)   bands (ev):

   -75.5814 -71.8434 -42.0285 -41.5402 -40.8672 -38.1190 -37.6412 -37.2626
    -5.3604  -4.7296   6.4828   7.3397   7.7965   8.0742   8.9758   9.2081
    10.3051  10.8272  11.2603  11.5790  12.7418  12.9632  14.0690  14.2146
    14.6143  15.6279  20.3928  21.3360  23.9256  24.7890

     occupation numbers 
     1.0000   1.0000   1.0000   1.0000   1.0000   1.0000   1.0000   1.0000
     1.0000   1.0000   1.0000   1.0000   1.0000   1.0000   1.0000   1.0000
     1.0000   1.0000   1.0000   1.0000   1.0000   0.9997   0.0098   0.0010
     0.0000   0.0000   0.0000   0.0000   0.0000   0.0000

          k = 0.0434 0.0434 0.1593 (   380 PWs)   bands (ev):

   -75.5808 -71.8428 -42.0095 -41.5683 -40.8464 -38.1001 -37.6724 -37.2411
    -5.3993  -4.7687   6.4967   7.3382   7.8695   8.3284   9.0011   9.5332
    10.0241  10.8612  11.2253  12.0184  12.2852  12.6599  14.1060  14.2384
    14.8803  15.2413  20.0605  21.0246  23.8011  24.8044

     occupation numbers 
     1.0000   1.0000   1.0000   1.0000   1.0000   1.0000   1.0000   1.0000
     1.0000   1.0000   1.0000   1.0000   1.0000   1.0000   1.0000   1.0000
     1.0000   1.0000   1.0000   1.0000   1.0000   1.0000   0.0057   0.0007
     0.0000   0.0000   0.0000   0.0000   0.0000   0.0000

          k = 0.2461-0.1593-0.0434 (   383 PWs)   bands (ev):

   -75.5828 -71.8445 -42.0225 -41.5840 -40.8611 -38.1130 -37.6879 -37.2560
    -5.2838  -4.6459   6.7872   7.5697   7.7630   8.0491   8.8207   9.1455
    10.3357  10.8741  11.1741  11.4332  12.3084  12.8772  14.0637  14.2657
    14.6087  15.3256  20.9734  21.9880  23.6053  24.1802

     occupation numbers 
     1.0000   1.0000   1.0000   1.0000   1.0000   1.0000   1.0000   1.0000
     1.0000   1.0000   1.0000   1.0000   1.0000   1.0000   1.0000   1.0000
     1.0000   1.0000   1.0000   1.0000   1.0000   0.9999   0.0105   0.0004
     0.0000   0.0000   0.0000   0.0000   0.0000   0.0000

          k = 0.2172-0.1303-0.0145 (   385 PWs)   bands (ev):

   -75.5853 -71.8467 -42.0442 -41.5770 -40.8842 -38.1333 -37.6803 -37.2783
    -5.2151  -4.5744   7.1827   7.4638   7.6792   8.0218   8.3671   8.7461
    10.6801  10.8789  11.0931  11.2233  12.3023  13.3817  13.8025  14.2703
    14.5582  15.3457  21.8878  23.0074  23.4156  23.7469

     occupation numbers 
     1.0000   1.0000   1.0000   1.0000   1.0000   1.0000   1.0000   1.0000
     1.0000   1.0000   1.0000   1.0000   1.0000   1.0000   1.0000   1.0000
     1.0000   1.0000   1.0000   1.0000   1.0000   0.8920   0.1710   0.0004
     0.0000   0.0000   0.0000   0.0000   0.0000   0.0000

          k = 0.1882-0.1013 0.0145 (   381 PWs)   bands (ev):

   -75.5819 -71.8436 -42.0340 -41.5514 -40.8739 -38.1244 -37.6542 -37.2695
    -5.2281  -4.5911   6.7570   7.5709   7.6052   7.7188   8.5313   8.8876
    10.6216  10.7900  11.1909  11.4998  12.6051  13.4102  13.8298  14.2549
    14.6812  15.5715  21.7235  22.7348  23.2000  24.0023

     occupation numbers 
     1.0000   1.0000   1.0000   1.0000   1.0000   1.0000   1.0000   1.0000
     1.0000   1.0000   1.0000   1.0000   1.0000   1.0000   1.0000   1.0000
     1.0000   1.0000   1.0000   1.0000   1.0000   0.8619   0.1374   0.0005
     0.0000   0.0000   0.0000   0.0000   0.0000   0.0000

          k = 0.0434 0.0434-0.2461 (   377 PWs)   bands (ev):

   -75.5777 -71.8399 -42.0047 -41.5711 -40.8429 -38.0971 -37.6779 -37.2395
    -5.2759  -4.6331   7.1048   7.7227   7.7846   8.4113   8.6803   9.5259
    10.0123  10.9513  11.1539  11.4689  11.8399  12.5120  14.1631  14.2674
    14.7733  14.8796  20.8667  21.9496  23.5191  23.9618

     occupation numbers 
     1.0000   1.0000   1.0000   1.0000   1.0000   1.0000   1.0000   1.0000
     1.0000   1.0000   1.0000   1.0000   1.0000   1.0000   1.0000   1.0000
     1.0000   1.0000   1.0000   1.0000   1.0000   1.0000   0.0024   0.0004
     0.0000   0.0000   0.0000   0.0000   0.0000   0.0000

          k = 0.0145 0.0724-0.2172 (   380 PWs)   bands (ev):

   -75.5808 -71.8425 -42.0218 -41.5677 -40.8610 -38.1125 -37.6738 -37.2565
    -5.2533  -4.6110   7.1582   7.7007   7.8688   8.0440   8.6979   9.1030
    10.3766  10.9502  11.0923  11.2036  12.0516  12.8364  14.0651  14.2733
    14.5379  15.1371  21.2155  22.3112  23.5420  23.9286

     occupation numbers 
     1.0000   1.0000   1.0000   1.0000   1.0000   1.0000   1.0000   1.0000
     1.0000   1.0000   1.0000   1.0000   1.0000   1.0000   1.0000   1.0000
     1.0000   1.0000   1.0000   1.0000   1.0000   1.0000   0.0103   0.0003
     0.0000   0.0000   0.0000   0.0000   0.0000   0.0000

          k = 0.0434 0.0434-0.1882 (   378 PWs)   bands (ev):

   -75.5788 -71.8408 -42.0042 -41.5737 -40.8421 -38.0963 -37.6793 -37.2384
    -5.3119  -4.6738   6.7778   7.5350   7.8058   8.3741   8.8318   9.5236
    10.0072  10.9246  11.1854  11.8358  11.9127  12.5619  14.1552  14.2640
    14.8802  14.9922  20.6462  21.6606  23.5087  24.4601

     occupation numbers 
     1.0000   1.0000   1.0000   1.0000   1.0000   1.0000   1.0000   1.0000
     1.0000   1.0000   1.0000   1.0000   1.0000   1.0000   1.0000   1.0000
     1.0000   1.0000   1.0000   1.0000   1.0000   1.0000   0.0027   0.0004
     0.0000   0.0000   0.0000   0.0000   0.0000   0.0000

          k = 0.0724 0.0724 0.0724 (   365 PWs)   bands (ev):

   -75.5732 -71.8357 -41.9774 -41.4923 -40.8100 -38.0693 -37.5969 -37.2058
    -5.6509  -5.0358   6.4451   7.3011   7.8604   7.8702   9.3296   9.3314
    10.5349  10.5373  11.0106  13.0407  13.0532  13.6181  13.6258  13.7259
    15.6929  15.7016  18.0597  18.8202  24.1594  25.0996

     occupation numbers 
     1.0000   1.0000   1.0000   1.0000   1.0000   1.0000   1.0000   1.0000
     1.0000   1.0000   1.0000   1.0000   1.0000   1.0000   1.0000   1.0000
     1.0000   1.0000   1.0000   0.9987   0.9984   0.5034   0.4874   0.2906
     0.0000   0.0000   0.0000   0.0000   0.0000   0.0000

          k = 0.0434 0.1013 0.1013 (   374 PWs)   bands (ev):

   -75.5781 -71.8404 -42.0070 -41.5171 -40.8424 -38.0973 -37.6210 -37.2368
    -5.4522  -4.8330   6.1094   6.9793   7.5693   7.8470   9.0378   9.1216
    10.5414  10.6833  11.2063  12.4410  13.5255  13.6252  13.7289  14.0716
    15.1722  16.2597  19.1655  19.9525  23.6375  24.5970

     occupation numbers 
     1.0000   1.0000   1.0000   1.0000   1.0000   1.0000   1.0000   1.0000
     1.0000   1.0000   1.0000   1.0000   1.0000   1.0000   1.0000   1.0000
     1.0000   1.0000   1.0000   1.0000   0.6878   0.4886   0.2853   0.0094
     0.0000   0.0000   0.0000   0.0000   0.0000   0.0000

          k = 0.2461-0.1013-0.1013 (   380 PWs)   bands (ev):

   -75.5818 -71.8436 -42.0265 -41.5505 -40.8633 -38.1170 -37.6527 -37.2582
    -5.2689  -4.6410   6.2074   7.1098   7.5518   7.6329   8.5968   8.9631
    10.6610  10.7248  11.3381  11.7347  13.4292  13.7819  13.8478  14.0754
    14.7595  16.2496  20.8665  21.7320  23.3886  24.3146

     occupation numbers 
     1.0000   1.0000   1.0000   1.0000   1.0000   1.0000   1.0000   1.0000
     1.0000   1.0000   1.0000   1.0000   1.0000   1.0000   1.0000   1.0000
     1.0000   1.0000   1.0000   1.0000   0.8390   0.1997   0.1179   0.0089
     0.0000   0.0000   0.0000   0.0000   0.0000   0.0000

          k = 0.2172-0.0724-0.0724 (   380 PWs)   bands (ev):

   -75.5813 -71.8430 -42.0355 -41.5442 -40.8743 -38.1262 -37.6468 -37.2699
    -5.2127  -4.5764   6.6850   7.3463   7.5716   7.8347   8.1875   9.1480
    10.4521  10.8335  11.2674  11.6534  12.8072  13.2892  14.0089  14.1997
    14.8339  15.6980  22.1164  22.5173  23.1832  23.4140

     occupation numbers 
     1.0000   1.0000   1.0000   1.0000   1.0000   1.0000   1.0000   1.0000
     1.0000   1.0000   1.0000   1.0000   1.0000   1.0000   1.0000   1.0000
     1.0000   1.0000   1.0000   1.0000   1.0000   0.9571   0.0216   0.0013
     0.0000   0.0000   0.0000   0.0000   0.0000   0.0000

          k = 0.0724 0.0724 0.1303 (   377 PWs)   bands (ev):

   -75.5808 -71.8428 -42.0097 -41.5505 -40.8455 -38.1007 -37.6532 -37.2401
    -5.3492  -4.7280   5.9010   6.7407   7.4728   7.7401   8.8344   9.1424
    10.4902  10.7966  11.2628  12.9942  13.1784  13.4444  13.9841  14.1597
    15.7167  15.9341  19.5324  20.3043  23.1716  24.1659

     occupation numbers 
     1.0000   1.0000   1.0000   1.0000   1.0000   1.0000   1.0000   1.0000
     1.0000   1.0000   1.0000   1.0000   1.0000   1.0000   1.0000   1.0000
     1.0000   1.0000   1.0000   0.9994   0.9891   0.8190   0.0291   0.0025
     0.0000   0.0000   0.0000   0.0000   0.0000   0.0000

          k = 0.2751-0.1303-0.0724 (   379 PWs)   bands (ev):

   -75.5814 -71.8432 -42.0213 -41.5549 -40.8588 -38.1121 -37.6584 -37.2537
    -5.2476  -4.6189   6.1461   6.9858   7.4659   7.6921   8.6462   8.9973
    10.5506  10.7987  11.2622  12.2533  13.1223  13.5111  13.9340  14.1917
    15.1710  15.9605  20.8886  21.7054  22.7829  23.7884

     occupation numbers 
     1.0000   1.0000   1.0000   1.0000   1.0000   1.0000   1.0000   1.0000
     1.0000   1.0000   1.0000   1.0000   1.0000   1.0000   1.0000   1.0000
     1.0000   1.0000   1.0000   1.0000   0.9951   0.7139   0.0512   0.0015
     0.0000   0.0000   0.0000   0.0000   0.0000   0.0000

          k = 0.2461-0.1013-0.0434 (   382 PWs)   bands (ev):

   -75.5830 -71.8447 -42.0409 -41.5532 -40.8808 -38.1306 -37.6564 -37.2756
    -5.2105  -4.5729   6.8223   7.4121   7.7058   7.7351   8.2649   8.9551
    10.5779  10.8178  11.2033  11.5276  12.6082  13.4537  13.8103  14.2490
    14.7337  15.5635  22.1175  22.8419  23.2228  23.7016

     occupation numbers 
     1.0000   1.0000   1.0000   1.0000   1.0000   1.0000   1.0000   1.0000
     1.0000   1.0000   1.0000   1.0000   1.0000   1.0000   1.0000   1.0000
     1.0000   1.0000   1.0000   1.0000   1.0000   0.8060   0.1610   0.0005
     0.0000   0.0000   0.0000   0.0000   0.0000   0.0000

          k = 0.0724 0.0724-0.2751 (   380 PWs)   bands (ev):

   -75.5813 -71.8432 -42.0263 -41.5553 -40.8643 -38.1167 -37.6597 -37.2589
    -5.2234  -4.5906   6.3598   7.1789   7.3934   7.7981   8.4489   9.1315
    10.4440  10.8473  11.2432  12.1578  12.8550  13.3063  14.0310  14.1977
    15.1833  15.7028  21.4704  22.3058  22.4445  23.4838

     occupation numbers 
     1.0000   1.0000   1.0000   1.0000   1.0000   1.0000   1.0000   1.0000
     1.0000   1.0000   1.0000   1.0000   1.0000   1.0000   1.0000   1.0000
     1.0000   1.0000   1.0000   1.0000   1.0000   0.9483   0.0163   0.0013
     0.0000   0.0000   0.0000   0.0000   0.0000   0.0000

          k = 0.1013 0.1013 0.1013 (   374 PWs)   bands (ev):

   -75.5779 -71.8398 -42.0139 -41.5254 -40.8422 -38.1053 -37.6298 -37.2352
    -5.2749  -4.6572   5.4692   6.3001   7.4359   7.4450   8.9043   8.9052
    10.7485  10.7523  11.3282  13.5618  13.5787  13.9100  13.9170  14.1546
    16.2842  16.2916  19.0388  19.6496  22.9061  23.9312

     occupation numbers 
     1.0000   1.0000   1.0000   1.0000   1.0000   1.0000   1.0000   1.0000
     1.0000   1.0000   1.0000   1.0000   1.0000   1.0000   1.0000   1.0000
     1.0000   1.0000   1.0000   0.6184   0.5845   0.0657   0.0612   0.0027
     0.0000   0.0000   0.0000   0.0000   0.0000   0.0000

          k = 0.3040-0.1013-0.1013 (   379 PWs)   bands (ev):

   -75.5816 -71.8434 -42.0244 -41.5461 -40.8595 -38.1151 -37.6487 -37.2536
    -5.2202  -4.5980   5.6249   6.4543   7.4257   7.4561   8.7555   8.8927
    10.7185  10.7675  11.3281  13.0421  13.5034  13.8478  13.9280  14.1672
[...]
     1.0000   1.0000   1.0000   1.0000   1.0000   1.0000   1.0000   1.0000
     1.0000   1.0000   1.0000   1.0000   1.0000   0.7864   0.1157   0.0007
     0.0000   0.0000   0.0000   0.0000   0.0000   0.0000

          k =-0.0434 0.1882-0.1013 (   380 PWs)   bands (ev):

   -75.5815 -71.8434 -42.0325 -41.5470 -40.8719 -38.1237 -37.6482 -37.2681
    -5.2171  -4.5828   6.4872   7.3188   7.4468   7.7220   8.4718   8.9858
    10.5509  10.8020  11.2130  11.9449  12.7694  13.4694  13.8527  14.2288
    15.0001  15.6772  21.8228  22.4623  22.6990  23.4737

     occupation numbers 
     1.0000   1.0000   1.0000   1.0000   1.0000   1.0000   1.0000   1.0000
     1.0000   1.0000   1.0000   1.0000   1.0000   1.0000   1.0000   1.0000
     1.0000   1.0000   1.0000   1.0000   1.0000   0.7826   0.1130   0.0008
     0.0000   0.0000   0.0000   0.0000   0.0000   0.0000

          k =-0.0724-0.0145 0.1593 (   381 PWs)   bands (ev):

   -75.5814 -71.8434 -42.0156 -41.5662 -40.8531 -38.1059 -37.6703 -37.2476
    -5.3604  -4.7296   6.4828   7.3394   7.7964   8.0741   8.9758   9.2084
    10.3042  10.8269  11.2621  11.5817  12.7403  12.9590  14.0666  14.2197
    14.6165  15.6255  20.3928  21.3359  23.9256  24.7892

     occupation numbers 
     1.0000   1.0000   1.0000   1.0000   1.0000   1.0000   1.0000   1.0000
     1.0000   1.0000   1.0000   1.0000   1.0000   1.0000   1.0000   1.0000
     1.0000   1.0000   1.0000   1.0000   1.0000   0.9997   0.0101   0.0009
     0.0000   0.0000   0.0000   0.0000   0.0000   0.0000

          k =-0.0145 0.1593-0.0724 (   381 PWs)   bands (ev):

   -75.5814 -71.8434 -42.0344 -41.5278 -40.8741 -38.1240 -37.6292 -37.2692
    -5.3604  -4.7296   6.4828   7.3396   7.7964   8.0742   8.9758   9.2079
    10.3046  10.8254  11.2603  11.5846  12.7375  12.9637  14.0683  14.2120
    14.6207  15.6257  20.3928  21.3360  23.9256  24.7894

     occupation numbers 
     1.0000   1.0000   1.0000   1.0000   1.0000   1.0000   1.0000   1.0000
     1.0000   1.0000   1.0000   1.0000   1.0000   1.0000   1.0000   1.0000
     1.0000   1.0000   1.0000   1.0000   1.0000   0.9997   0.0099   0.0010
     0.0000   0.0000   0.0000   0.0000   0.0000   0.0000

          k = 0.0434 0.1593 0.0434 (   380 PWs)   bands (ev):

   -75.5808 -71.8428 -42.0296 -41.5276 -40.8683 -38.1196 -37.6291 -37.2636
    -5.3993  -4.7687   6.4967   7.3385   7.8696   8.3286   9.0011   9.5323
    10.0244  10.8619  11.2229  12.0143  12.2895  12.6630  14.1100  14.2308
    14.8794  15.2443  20.0605  21.0246  23.8011  24.8043

     occupation numbers 
     1.0000   1.0000   1.0000   1.0000   1.0000   1.0000   1.0000   1.0000
     1.0000   1.0000   1.0000   1.0000   1.0000   1.0000   1.0000   1.0000
     1.0000   1.0000   1.0000   1.0000   1.0000   1.0000   0.0054   0.0007
     0.0000   0.0000   0.0000   0.0000   0.0000   0.0000

          k =-0.1593-0.0434 0.2461 (   383 PWs)   bands (ev):

   -75.5828 -71.8445 -42.0441 -41.5405 -40.8844 -38.1336 -37.6423 -37.2795
    -5.2838  -4.6459   6.7872   7.5700   7.7631   8.0491   8.8206   9.1451
    10.3362  10.8752  11.1718  11.4307  12.3108  12.8800  14.0646  14.2619
    14.6071  15.3283  20.9734  21.9880  23.6053  24.1801

     occupation numbers 
     1.0000   1.0000   1.0000   1.0000   1.0000   1.0000   1.0000   1.0000
     1.0000   1.0000   1.0000   1.0000   1.0000   1.0000   1.0000   1.0000
     1.0000   1.0000   1.0000   1.0000   1.0000   0.9999   0.0104   0.0004
     0.0000   0.0000   0.0000   0.0000   0.0000   0.0000

          k =-0.0434 0.2461-0.1593 (   383 PWs)   bands (ev):

   -75.5828 -71.8445 -42.0429 -41.5428 -40.8833 -38.1332 -37.6431 -37.2792
    -5.2838  -4.6459   6.7873   7.5699   7.7631   8.0491   8.8206   9.1449
    10.3359  10.8717  11.1712  11.4394  12.3061  12.8801  14.0666  14.2542
    14.6161  15.3254  20.9734  21.9880  23.6053  24.1802

     occupation numbers 
     1.0000   1.0000   1.0000   1.0000   1.0000   1.0000   1.0000   1.0000
     1.0000   1.0000   1.0000   1.0000   1.0000   1.0000   1.0000   1.0000
     1.0000   1.0000   1.0000   1.0000   1.0000   0.9999   0.0101   0.0005
     0.0000   0.0000   0.0000   0.0000   0.0000   0.0000

          k =-0.1303-0.0145 0.2172 (   385 PWs)   bands (ev):

   -75.5853 -71.8467 -42.0493 -41.5666 -40.8899 -38.1384 -37.6688 -37.2844
    -5.2151  -4.5744   7.1827   7.4639   7.6792   8.0221   8.3670   8.7459
    10.6803  10.8795  11.0914  11.2235  12.3027  13.3839  13.8009  14.2693
    14.5583  15.3463  21.8878  23.0075  23.4155  23.7468

     occupation numbers 
     1.0000   1.0000   1.0000   1.0000   1.0000   1.0000   1.0000   1.0000
     1.0000   1.0000   1.0000   1.0000   1.0000   1.0000   1.0000   1.0000
     1.0000   1.0000   1.0000   1.0000   1.0000   0.8898   0.1733   0.0004
     0.0000   0.0000   0.0000   0.0000   0.0000   0.0000

          k =-0.0145 0.2172-0.1303 (   385 PWs)   bands (ev):

   -75.5853 -71.8467 -42.0519 -41.5608 -40.8934 -38.1421 -37.6598 -37.2894
    -5.2151  -4.5744   7.1827   7.4639   7.6791   8.0220   8.3671   8.7457
    10.6791  10.8763  11.0835  11.2393  12.2988  13.3834  13.8058  14.2554
    14.5708  15.3441  21.8879  23.0074  23.4156  23.7469

     occupation numbers 
     1.0000   1.0000   1.0000   1.0000   1.0000   1.0000   1.0000   1.0000
     1.0000   1.0000   1.0000   1.0000   1.0000   1.0000   1.0000   1.0000
     1.0000   1.0000   1.0000   1.0000   1.0000   0.8904   0.1667   0.0005
     0.0000   0.0000   0.0000   0.0000   0.0000   0.0000

          k =-0.1013 0.0145 0.1882 (   381 PWs)   bands (ev):

   -75.5819 -71.8436 -42.0310 -41.5575 -40.8704 -38.1210 -37.6621 -37.2653
    -5.2281  -4.5911   6.7570   7.5707   7.6049   7.7189   8.5315   8.8875
    10.6211  10.7890  11.1922  11.5019  12.6031  13.4077  13.8313  14.2560
    14.6826  15.5701  21.7235  22.7346  23.2000  24.0027

     occupation numbers 
     1.0000   1.0000   1.0000   1.0000   1.0000   1.0000   1.0000   1.0000
     1.0000   1.0000   1.0000   1.0000   1.0000   1.0000   1.0000   1.0000
     1.0000   1.0000   1.0000   1.0000   1.0000   0.8647   0.1358   0.0005
     0.0000   0.0000   0.0000   0.0000   0.0000   0.0000

          k = 0.0145 0.1882-0.1013 (   381 PWs)   bands (ev):

   -75.5819 -71.8437 -42.0350 -41.5489 -40.8755 -38.1263 -37.6494 -37.2722
    -5.2281  -4.5911   6.7570   7.5708   7.6051   7.7188   8.5315   8.8872
    10.6207  10.7882  11.1899  11.5072  12.6007  13.4098  13.8337  14.2469
    14.6891  15.5693  21.7236  22.7347  23.2000  24.0024

     occupation numbers 
     1.0000   1.0000   1.0000   1.0000   1.0000   1.0000   1.0000   1.0000
     1.0000   1.0000   1.0000   1.0000   1.0000   1.0000   1.0000   1.0000
     1.0000   1.0000   1.0000   1.0000   1.0000   0.8624   0.1331   0.0006
     0.0000   0.0000   0.0000   0.0000   0.0000   0.0000

          k = 0.0434-0.2461 0.0434 (   377 PWs)   bands (ev):

   -75.5777 -71.8399 -42.0282 -41.5237 -40.8684 -38.1203 -37.6265 -37.2660
    -5.2759  -4.6331   7.1049   7.7228   7.7849   8.4114   8.6801   9.5250
    10.0124  10.9528  11.1462  11.4772  11.8362  12.5153  14.1697  14.2545
    14.7787  14.8793  20.8667  21.9496  23.5191  23.9618

     occupation numbers 
     1.0000   1.0000   1.0000   1.0000   1.0000   1.0000   1.0000   1.0000
     1.0000   1.0000   1.0000   1.0000   1.0000   1.0000   1.0000   1.0000
     1.0000   1.0000   1.0000   1.0000   1.0000   1.0000   0.0021   0.0005
     0.0000   0.0000   0.0000   0.0000   0.0000   0.0000

          k = 0.0724-0.2172 0.0145 (   380 PWs)   bands (ev):

   -75.5808 -71.8425 -42.0383 -41.5339 -40.8796 -38.1287 -37.6369 -37.2759
    -5.2533  -4.6109   7.1583   7.7008   7.8691   8.0440   8.6978   9.1025
    10.3770  10.9525  11.0874  11.2036  12.0530  12.8389  14.0653  14.2693
    14.5378  15.1395  21.2155  22.3112  23.5420  23.9286

     occupation numbers 
     1.0000   1.0000   1.0000   1.0000   1.0000   1.0000   1.0000   1.0000
     1.0000   1.0000   1.0000   1.0000   1.0000   1.0000   1.0000   1.0000
     1.0000   1.0000   1.0000   1.0000   1.0000   1.0000   0.0103   0.0004
     0.0000   0.0000   0.0000   0.0000   0.0000   0.0000

          k =-0.2172 0.0145 0.0724 (   380 PWs)   bands (ev):

   -75.5808 -71.8425 -42.0312 -41.5483 -40.8719 -38.1236 -37.6487 -37.2697
    -5.2533  -4.6109   7.1583   7.7008   7.8690   8.0440   8.6978   9.1024
    10.3768  10.9424  11.0858  11.2201  12.0482  12.8390  14.0698  14.2555
    14.5509  15.1361  21.2155  22.3111  23.5421  23.9286

     occupation numbers 
     1.0000   1.0000   1.0000   1.0000   1.0000   1.0000   1.0000   1.0000
     1.0000   1.0000   1.0000   1.0000   1.0000   1.0000   1.0000   1.0000
     1.0000   1.0000   1.0000   1.0000   1.0000   1.0000   0.0097   0.0005
     0.0000   0.0000   0.0000   0.0000   0.0000   0.0000

          k = 0.0434-0.1882 0.0434 (   378 PWs)   bands (ev):

   -75.5788 -71.8408 -42.0294 -41.5232 -40.8692 -38.1206 -37.6256 -37.2660
    -5.3119  -4.6738   6.7779   7.5353   7.8059   8.3743   8.8317   9.5228
    10.0074  10.9261  11.1811  11.8384  11.9114  12.5651  14.1610  14.2535
    14.8790  14.9967  20.6462  21.6607  23.5087  24.4602

     occupation numbers 
     1.0000   1.0000   1.0000   1.0000   1.0000   1.0000   1.0000   1.0000
     1.0000   1.0000   1.0000   1.0000   1.0000   1.0000   1.0000   1.0000
     1.0000   1.0000   1.0000   1.0000   1.0000   1.0000   0.0025   0.0005
     0.0000   0.0000   0.0000   0.0000   0.0000   0.0000

          k = 0.1013 0.1013 0.0434 (   374 PWs)   bands (ev):

   -75.5781 -71.8404 -42.0006 -41.5301 -40.8356 -38.0924 -37.6319 -37.2311
    -5.4522  -4.8330   6.1094   6.9794   7.5693   7.8470   9.0382   9.1212
    10.5411  10.6849  11.2048  12.4381  13.5302  13.6248  13.7352  14.0644
    15.1703  16.2614  19.1655  19.9525  23.6375  24.5969

     occupation numbers 
     1.0000   1.0000   1.0000   1.0000   1.0000   1.0000   1.0000   1.0000
     1.0000   1.0000   1.0000   1.0000   1.0000   1.0000   1.0000   1.0000
     1.0000   1.0000   1.0000   1.0000   0.6791   0.4896   0.2742   0.0104
     0.0000   0.0000   0.0000   0.0000   0.0000   0.0000

          k =-0.1013-0.1013 0.2461 (   380 PWs)   bands (ev):

   -75.5818 -71.8436 -42.0330 -41.5373 -40.8703 -38.1225 -37.6407 -37.2644
    -5.2689  -4.6410   6.2074   7.1100   7.5520   7.6328   8.5964   8.9635
    10.6624  10.7253  11.3369  11.7313  13.4363  13.7821  13.8450  14.0750
    14.7562  16.2512  20.8665  21.7321  23.3886  24.3139

     occupation numbers 
     1.0000   1.0000   1.0000   1.0000   1.0000   1.0000   1.0000   1.0000
     1.0000   1.0000   1.0000   1.0000   1.0000   1.0000   1.0000   1.0000
     1.0000   1.0000   1.0000   1.0000   0.8298   0.1993   0.1208   0.0090
     0.0000   0.0000   0.0000   0.0000   0.0000   0.0000

          k =-0.0724-0.0724 0.2172 (   380 PWs)   bands (ev):

   -75.5813 -71.8430 -42.0260 -41.5638 -40.8634 -38.1169 -37.6682 -37.2586
    -5.2127  -4.5764   6.6850   7.3463   7.5717   7.8348   8.1872   9.1485
    10.4528  10.8338  11.2690  11.6481  12.8136  13.2840  14.0071  14.2053
    14.8298  15.6993  22.1164  22.5172  23.1833  23.8106

     occupation numbers 
     1.0000   1.0000   1.0000   1.0000   1.0000   1.0000   1.0000   1.0000
     1.0000   1.0000   1.0000   1.0000   1.0000   1.0000   1.0000   1.0000
     1.0000   1.0000   1.0000   1.0000   1.0000   0.9595   0.0220   0.0012
     0.0000   0.0000   0.0000   0.0000   0.0000   0.0000

          k = 0.0724 0.1303 0.0724 (   377 PWs)   bands (ev):

   -75.5808 -71.8428 -42.0213 -41.5269 -40.8582 -38.1114 -37.6293 -37.2525
    -5.3492  -4.7280   5.9010   6.7408   7.4728   7.7401   8.8347   9.1419
    10.4898  10.7979  11.2616  12.9878  13.1830  13.4493  13.9858  14.1547
    15.7153  15.9359  19.5324  20.3043  23.1716  24.1658

     occupation numbers 
     1.0000   1.0000   1.0000   1.0000   1.0000   1.0000   1.0000   1.0000
     1.0000   1.0000   1.0000   1.0000   1.0000   1.0000   1.0000   1.0000
     1.0000   1.0000   1.0000   0.9995   0.9884   0.8121   0.0285   0.0027
     0.0000   0.0000   0.0000   0.0000   0.0000   0.0000

          k =-0.1303-0.0724 0.2751 (   379 PWs)   bands (ev):

   -75.5814 -71.8432 -42.0309 -41.5355 -40.8693 -38.1209 -37.6387 -37.2640
    -5.2476  -4.6189   6.1461   6.9859   7.4660   7.6921   8.6462   8.9972
    10.5504  10.8001  11.2608  12.2512  13.1242  13.5146  13.9332  14.1893
    15.1696  15.9619  20.8886  21.7055  22.7829  23.7883

     occupation numbers 
     1.0000   1.0000   1.0000   1.0000   1.0000   1.0000   1.0000   1.0000
     1.0000   1.0000   1.0000   1.0000   1.0000   1.0000   1.0000   1.0000
     1.0000   1.0000   1.0000   1.0000   0.9950   0.7077   0.0516   0.0015
     0.0000   0.0000   0.0000   0.0000   0.0000   0.0000

          k =-0.0724 0.2751-0.1303 (   379 PWs)   bands (ev):

   -75.5814 -71.8432 -42.0270 -41.5433 -40.8652 -38.1180 -37.6449 -37.2608
    -5.2476  -4.6189   6.1461   6.9858   7.4660   7.6920   8.6464   8.9969
    10.5499  10.7996  11.2613  12.2551  13.1188  13.5148  13.9364  14.1867
    15.1729  15.9600  20.8886  21.7054  22.7829  23.7884

     occupation numbers 
     1.0000   1.0000   1.0000   1.0000   1.0000   1.0000   1.0000   1.0000
     1.0000   1.0000   1.0000   1.0000   1.0000   1.0000   1.0000   1.0000
     1.0000   1.0000   1.0000   1.0000   0.9954   0.7072   0.0499   0.0016
     0.0000   0.0000   0.0000   0.0000   0.0000   0.0000

          k =-0.1013-0.0434 0.2461 (   382 PWs)   bands (ev):

   -75.5830 -71.8447 -42.0344 -41.5664 -40.8735 -38.1246 -37.6700 -37.2684
    -5.2105  -4.5729   6.8223   7.4121   7.7059   7.7351   8.2647   8.9554
    10.5784  10.8179  11.2042  11.5247  12.6106  13.4510  13.8120  14.2499
    14.7320  15.5641  22.1175  22.8419  23.2228  23.7014

     occupation numbers 
     1.0000   1.0000   1.0000   1.0000   1.0000   1.0000   1.0000   1.0000
     1.0000   1.0000   1.0000   1.0000   1.0000   1.0000   1.0000   1.0000
     1.0000   1.0000   1.0000   1.0000   1.0000   0.8098   0.1589   0.0005
     0.0000   0.0000   0.0000   0.0000   0.0000   0.0000

          k =-0.0434 0.2461-0.1013 (   382 PWs)   bands (ev):

   -75.5830 -71.8447 -42.0405 -41.5537 -40.8808 -38.1314 -37.6540 -37.2770
    -5.2105  -4.5729   6.8223   7.4121   7.7058   7.7350   8.2649   8.9550
    10.5771  10.8174  11.2017  11.5323  12.6058  13.4530  13.8150  14.2414
    14.7392  15.5623  22.1175  22.8419  23.2228  23.7014

     occupation numbers 
     1.0000   1.0000   1.0000   1.0000   1.0000   1.0000   1.0000   1.0000
     1.0000   1.0000   1.0000   1.0000   1.0000   1.0000   1.0000   1.0000
     1.0000   1.0000   1.0000   1.0000   1.0000   0.8069   0.1552   0.0006
     0.0000   0.0000   0.0000   0.0000   0.0000   0.0000

          k = 0.0724-0.2751 0.0724 (   380 PWs)   bands (ev):

   -75.5813 -71.8432 -42.0314 -41.5446 -40.8703 -38.1222 -37.6467 -37.2659
    -5.2233  -4.5906   6.3598   7.1789   7.3935   7.7980   8.4491   9.1310
    10.4435  10.8482  11.2420  12.1614  12.8485  13.3116  14.0337  14.1922
    15.1861  15.7015  21.4704  22.3060  22.4443  23.4838

     occupation numbers 
     1.0000   1.0000   1.0000   1.0000   1.0000   1.0000   1.0000   1.0000
     1.0000   1.0000   1.0000   1.0000   1.0000   1.0000   1.0000   1.0000
     1.0000   1.0000   1.0000   1.0000   1.0000   0.9454   0.0157   0.0015
     0.0000   0.0000   0.0000   0.0000   0.0000   0.0000

          k =-0.1013-0.1013 0.3040 (   379 PWs)   bands (ev):

   -75.5816 -71.8434 -42.0297 -41.5353 -40.8653 -38.1197 -37.6386 -37.2587
    -5.2202  -4.5980   5.6249   6.4543   7.4256   7.4563   8.7552   8.8931
    10.7193  10.7669  11.3279  13.0382  13.5118  13.8425  13.9281  14.1680
    15.8176  16.2724  19.9556  20.6308  22.6629  23.7065

     occupation numbers 
     1.0000   1.0000   1.0000   1.0000   1.0000   1.0000   1.0000   1.0000
     1.0000   1.0000   1.0000   1.0000   1.0000   1.0000   1.0000   1.0000
     1.0000   1.0000   1.0000   0.9987   0.7127   0.1235   0.0545   0.0022
     0.0000   0.0000   0.0000   0.0000   0.0000   0.0000

     the Fermi energy is    13.6197 ev

!    total energy              =    -365.20545707 Ry
     Harris-Foulkes estimate   =    -365.20544492 Ry
     estimated scf accuracy    <       0.00000176 Ry

     total all-electron energy =     -2690.456931 Ry

     The total energy is the sum of the following terms:

     one-electron contribution =    -132.10398456 Ry
     hartree contribution      =      79.04911712 Ry
     xc contribution           =     -41.78361388 Ry
     ewald contribution        =    -189.73132980 Ry
     one-center paw contrib.   =     -80.63029664 Ry
      -> PAW hartree energy AE =     206.93110956 Ry
      -> PAW hartree energy PS =    -206.13053801 Ry
      -> PAW xc energy AE      =    -106.67715280 Ry
      -> PAW xc energy PS      =      33.93047526 Ry
      -> total E_H with PAW    =      79.84968867 Ry
      -> total E_XC with PAW   =    -114.53029142 Ry
     smearing contrib. (-TS)   =      -0.00534931 Ry

     total magnetization       =    -0.00    -0.00     3.89 Bohr mag/cell
     absolute magnetization    =     3.95 Bohr mag/cell

     convergence has been achieved in   8 iterations

     Writing output data file pwscf.save

     init_run     :      3.15s CPU      3.28s WALL (       1 calls)
     electrons    :     58.63s CPU     59.96s WALL (       1 calls)

     Called by init_run:
     wfcinit      :      1.68s CPU      1.73s WALL (       1 calls)
     wfcinit:atom :      0.01s CPU      0.01s WALL (     144 calls)
     wfcinit:wfcr :      1.59s CPU      1.64s WALL (     144 calls)
     potinit      :      1.18s CPU      1.19s WALL (       1 calls)

     Called by electrons:
     c_bands      :     39.61s CPU     40.53s WALL (       8 calls)
     sum_band     :      8.36s CPU      8.54s WALL (       8 calls)
     v_of_rho     :      0.01s CPU      0.01s WALL (       9 calls)
     v_h          :      0.00s CPU      0.00s WALL (       9 calls)
     v_xc         :      0.01s CPU      0.01s WALL (       9 calls)
     newd         :      1.30s CPU      1.31s WALL (       9 calls)
     PAW_pot      :     10.59s CPU     10.79s WALL (       9 calls)
     mix_rho      :      0.01s CPU      0.01s WALL (       8 calls)

     Called by c_bands:
     init_us_2    :      0.19s CPU      0.17s WALL (    2448 calls)
     cegterg      :     38.62s CPU     39.53s WALL (    1152 calls)

     Called by sum_band:
     sum_band:bec :      3.60s CPU      3.67s WALL (    1152 calls)
     addusdens    :      0.26s CPU      0.27s WALL (       8 calls)

     Called by *egterg:
     h_psi        :     21.75s CPU     22.36s WALL (    4286 calls)
     s_psi        :      2.29s CPU      2.30s WALL (    4286 calls)
     g_psi        :      0.02s CPU      0.06s WALL (    2990 calls)
     cdiaghg      :     11.86s CPU     11.98s WALL (    4142 calls)
     cegterg:over :      1.72s CPU      1.75s WALL (    2990 calls)
     cegterg:upda :      0.84s CPU      0.86s WALL (    2990 calls)
     cegterg:last :      0.52s CPU      0.53s WALL (    1152 calls)

     Called by h_psi:
     h_psi:pot    :     21.73s CPU     22.30s WALL (    4286 calls)
     h_psi:calbec :      1.14s CPU      1.08s WALL (    4286 calls)
     vloc_psi     :     18.31s CPU     18.87s WALL (    4286 calls)
     add_vuspsi   :      2.27s CPU      2.32s WALL (    4286 calls)

     General routines
     calbec       :      1.55s CPU      1.47s WALL (    5438 calls)
     fft          :      0.03s CPU      0.04s WALL (     179 calls)
     fftw         :     18.76s CPU     18.99s WALL (  429360 calls)

     Parallel routines
     fft_scatter  :      3.49s CPU      4.42s WALL (  429539 calls)

     PAW routines
     PAW_pot      :     10.59s CPU     10.79s WALL (       9 calls)
     PAW_symme    :      0.08s CPU      0.08s WALL (      17 calls)

     PWSCF        :  1m 4.44s CPU     1m 6.70s WALL


   This run was terminated on:  19:42:27  15Aug2017            

=------------------------------------------------------------------------------=
   JOB DONE.
=------------------------------------------------------------------------------=
