
.Version 8.4.2 of ABINIT 
.(MPI version, prepared for a x86_64_linux_gnu4.8 computer) 

.Copyright (C) 1998-2017 ABINIT group . 
 ABINIT comes with ABSOLUTELY NO WARRANTY.
 It is free software, and you are welcome to redistribute it
 under certain conditions (GNU General Public License,
 see ~abinit/COPYING or http://www.gnu.org/copyleft/gpl.txt).

 ABINIT is a project of the Universite Catholique de Louvain,
 Corning Inc. and other collaborators, see ~abinit/doc/developers/contributors.txt .
 Please read ~abinit/doc/users/acknowledgments.html for suggested
 acknowledgments of the ABINIT effort.
 For more information, see http://www.abinit.org .

.Starting date : Tue 15 Aug 2017.
- ( at 22h11 )
  
- input  file    -> abinit.in
- output file    -> abinit.out
- root for input  files -> abinit_i
- root for output files -> abinit_o


 DATASET    1 : space group Fm -3 m (#225); Bravais cF (face-center cubic)
================================================================================
 Values of the parameters that define the memory need for DATASET  1.
     intxc =       0    ionmov =       0      iscf =      17    lmnmax =      18
     lnmax =       6     mgfft =      24  mpssoang =       3    mqgrid =    3001
     natom =       2  nloc_mem =       2    nspden =       1   nspinor =       1
    nsppol =       1      nsym =      48    n1xccc =       1    ntypat =       2
    occopt =       7   xclevel =       2
-    mband =          40        mffmem =           1         mkmem =           2
       mpw =         132          nfft =        4608          nkpt =          10
Pmy_natom=         1
 PAW method is used; the additional fine FFT grid is defined by:
   mgfftf=        36    nfftf =     15552
================================================================================
P This job should need less than                      10.763 Mbytes of memory.
  Rough estimation (10% accuracy) of disk space for files :
_ WF disk file :      2.419 Mbytes ; DEN or POT disk file :      0.121 Mbytes.
================================================================================


 DATASET    2 : space group Fm -3 m (#225); Bravais cF (face-center cubic)
================================================================================
 Values of the parameters that define the memory need for DATASET  2.
     intxc =       0    ionmov =       0      iscf =      -2    lmnmax =      18
     lnmax =       6     mgfft =      24  mpssoang =       3    mqgrid =    3001
     natom =       2  nloc_mem =       2    nspden =       1   nspinor =       1
    nsppol =       1      nsym =      48    n1xccc =       1    ntypat =       2
    occopt =       7   xclevel =       2
-    mband =          40        mffmem =           1         mkmem =           6
       mpw =         388          nfft =       13824          nkpt =          89
Pmy_natom=         1
 PAW method is used; the additional fine FFT grid is defined by:
   mgfftf=        36    nfftf =     46656
================================================================================
P This job should need less than                      15.630 Mbytes of memory.
  Rough estimation (10% accuracy) of disk space for files :
_ WF disk file :     21.079 Mbytes ; DEN or POT disk file :      0.358 Mbytes.
================================================================================


 DATASET    3 : space group Fm -3 m (#225); Bravais cF (face-center cubic)
================================================================================
 Values of the parameters that define the memory need for DATASET  3.
     intxc =       0    ionmov =       0      iscf =      -2    lmnmax =      18
     lnmax =       6     mgfft =      24  mpssoang =       3    mqgrid =    3001
     natom =       2  nloc_mem =       2    nspden =       1   nspinor =       1
    nsppol =       1      nsym =      48    n1xccc =       1    ntypat =       2
    occopt =       7   xclevel =       2
-    mband =          40        mffmem =           1         mkmem =           6
       mpw =         388          nfft =       13824          nkpt =          89
Pmy_natom=         1
 PAW method is used; the additional fine FFT grid is defined by:
   mgfftf=        36    nfftf =     46656
================================================================================
P This job should need less than                      15.630 Mbytes of memory.
  Rough estimation (10% accuracy) of disk space for files :
_ WF disk file :     21.079 Mbytes ; DEN or POT disk file :      0.358 Mbytes.
================================================================================


 DATASET    4 : space group Fm -3 m (#225); Bravais cF (face-center cubic)
================================================================================
 Values of the parameters that define the memory need for DATASET  4.
     intxc =       0    ionmov =       0      iscf =      -3    lmnmax =      18
     lnmax =       6     mgfft =      24  mpssoang =       3    mqgrid =    3001
     natom =       2  nloc_mem =       2    nspden =       1   nspinor =       1
    nsppol =       1      nsym =      48    n1xccc =       1    ntypat =       2
    occopt =       7   xclevel =       2
-    mband =          40        mffmem =           1         mkmem =           2
       mpw =         100          nfft =        3456          nkpt =           6
Pmy_natom=         1
 PAW method is used; the additional fine FFT grid is defined by:
   mgfftf=        36    nfftf =     11664
================================================================================
P This job should need less than                       7.326 Mbytes of memory.
  Rough estimation (10% accuracy) of disk space for files :
_ WF disk file :      1.467 Mbytes ; DEN or POT disk file :      0.091 Mbytes.
================================================================================

--------------------------------------------------------------------------------
------------- Echo of variables that govern the present computation ------------
--------------------------------------------------------------------------------
-
- outvars: echo of selected default values                                      
-   iomode0 =  0 , fftalg0 =112 , wfoptalg0 = 10
-
- outvars: echo of global parameters not present in the input file              
-  max_nthreads =    0
-
 -outvars: echo values of preprocessed input variables --------
-          iomode1          1
-          iomode2          0
-          iomode3          0
-          iomode4          1
            acell      1.8897261329E+00  1.8897261329E+00  1.8897261329E+00 Bohr
              amu      5.58470000E+01  1.59994000E+01
        autoparal           1
             ecut      1.50000000E+01 Hartree
-          fftalg1        401
-          fftalg2        112
-          fftalg3        112
-          fftalg4        401
           getden1          0
           getden2          1
           getden3          1
           getden4          1
           iatsph3       1    2
           iatsph4       1    2
     densfor_pred1          6
     densfor_pred2          2
     densfor_pred3          2
     densfor_pred4          6
             iscf1         17
             iscf2         -2
             iscf3         -2
             iscf4         -3
           istwfk2       2    0    0    0    0    0    0    0    0    0
                         0    0    0    0    0    7    0    0    0    0
                         0    0    0    0    0    0    0    0    0    0
                         0    0    0    0    0    0    0    0    0    0
                         0    0    2    0    0    0    0    0    0    0
           istwfk3       2    0    0    0    0    0    0    0    0    0
                         0    0    0    0    0    7    0    0    0    0
                         0    0    0    0    0    0    0    0    0    0
                         0    0    0    0    0    0    0    0    0    0
                         0    0    2    0    0    0    0    0    0    0
           istwfk4       0    1    0    0    0    0
                       outvar_i_n : Printing only first  50 k-points.
              ixc          11
           jdtset        1    2    3    4
              kpt1    -1.25000000E-01  0.00000000E+00  0.00000000E+00
                      -1.25000000E-01  0.00000000E+00  2.50000000E-01
                      -1.25000000E-01  1.25000000E-01  1.25000000E-01
                      -3.75000000E-01  0.00000000E+00  0.00000000E+00
                      -1.25000000E-01  0.00000000E+00  5.00000000E-01
                      -2.50000000E-01  0.00000000E+00  3.75000000E-01
                      -1.25000000E-01  1.25000000E-01  3.75000000E-01
                      -1.25000000E-01  2.50000000E-01  2.50000000E-01
                      -3.75000000E-01  0.00000000E+00  5.00000000E-01
                      -2.50000000E-01  1.25000000E-01  5.00000000E-01
              kpt2     0.00000000E+00  0.00000000E+00  0.00000000E+00
                       3.33333333E-02  3.33333333E-02  0.00000000E+00
                       6.66666667E-02  6.66666667E-02  0.00000000E+00
                       1.00000000E-01  1.00000000E-01  0.00000000E+00
                       1.33333333E-01  1.33333333E-01  0.00000000E+00
                       1.66666667E-01  1.66666667E-01  0.00000000E+00
                       2.00000000E-01  2.00000000E-01  0.00000000E+00
                       2.33333333E-01  2.33333333E-01  0.00000000E+00
                       2.66666667E-01  2.66666667E-01  0.00000000E+00
                       3.00000000E-01  3.00000000E-01  0.00000000E+00
                       3.33333333E-01  3.33333333E-01  0.00000000E+00
                       3.66666667E-01  3.66666667E-01  0.00000000E+00
                       4.00000000E-01  4.00000000E-01  0.00000000E+00
                       4.33333333E-01  4.33333333E-01  0.00000000E+00
                       4.66666667E-01  4.66666667E-01  0.00000000E+00
                       5.00000000E-01  5.00000000E-01  0.00000000E+00
                       5.00000000E-01  5.35714286E-01  3.57142857E-02
                       5.00000000E-01  5.71428571E-01  7.14285714E-02
                       5.00000000E-01  6.07142857E-01  1.07142857E-01
                       5.00000000E-01  6.42857143E-01  1.42857143E-01
                       5.00000000E-01  6.78571429E-01  1.78571429E-01
                       5.00000000E-01  7.14285714E-01  2.14285714E-01
                       5.00000000E-01  7.50000000E-01  2.50000000E-01
                       4.75000000E-01  7.50000000E-01  2.75000000E-01
                       4.50000000E-01  7.50000000E-01  3.00000000E-01
                       4.25000000E-01  7.50000000E-01  3.25000000E-01
                       4.00000000E-01  7.50000000E-01  3.50000000E-01
                       3.75000000E-01  7.50000000E-01  3.75000000E-01
                       3.50000000E-01  7.00000000E-01  3.50000000E-01
                       3.25000000E-01  6.50000000E-01  3.25000000E-01
                       3.00000000E-01  6.00000000E-01  3.00000000E-01
                       2.75000000E-01  5.50000000E-01  2.75000000E-01
                       2.50000000E-01  5.00000000E-01  2.50000000E-01
                       2.25000000E-01  4.50000000E-01  2.25000000E-01
                       2.00000000E-01  4.00000000E-01  2.00000000E-01
                       1.75000000E-01  3.50000000E-01  1.75000000E-01
                       1.50000000E-01  3.00000000E-01  1.50000000E-01
                       1.25000000E-01  2.50000000E-01  1.25000000E-01
                       1.00000000E-01  2.00000000E-01  1.00000000E-01
                       7.50000000E-02  1.50000000E-01  7.50000000E-02
                       5.00000000E-02  1.00000000E-01  5.00000000E-02
                       2.50000000E-02  5.00000000E-02  2.50000000E-02
                       0.00000000E+00  0.00000000E+00  0.00000000E+00
                       3.84615385E-02  3.84615385E-02  3.84615385E-02
                       7.69230769E-02  7.69230769E-02  7.69230769E-02
                       1.15384615E-01  1.15384615E-01  1.15384615E-01
                       1.53846154E-01  1.53846154E-01  1.53846154E-01
                       1.92307692E-01  1.92307692E-01  1.92307692E-01
                       2.30769231E-01  2.30769231E-01  2.30769231E-01
                       2.69230769E-01  2.69230769E-01  2.69230769E-01
              kpt3     0.00000000E+00  0.00000000E+00  0.00000000E+00
                       3.33333333E-02  3.33333333E-02  0.00000000E+00
                       6.66666667E-02  6.66666667E-02  0.00000000E+00
                       1.00000000E-01  1.00000000E-01  0.00000000E+00
                       1.33333333E-01  1.33333333E-01  0.00000000E+00
                       1.66666667E-01  1.66666667E-01  0.00000000E+00
                       2.00000000E-01  2.00000000E-01  0.00000000E+00
                       2.33333333E-01  2.33333333E-01  0.00000000E+00
                       2.66666667E-01  2.66666667E-01  0.00000000E+00
                       3.00000000E-01  3.00000000E-01  0.00000000E+00
                       3.33333333E-01  3.33333333E-01  0.00000000E+00
                       3.66666667E-01  3.66666667E-01  0.00000000E+00
                       4.00000000E-01  4.00000000E-01  0.00000000E+00
                       4.33333333E-01  4.33333333E-01  0.00000000E+00
                       4.66666667E-01  4.66666667E-01  0.00000000E+00
                       5.00000000E-01  5.00000000E-01  0.00000000E+00
                       5.00000000E-01  5.35714286E-01  3.57142857E-02
                       5.00000000E-01  5.71428571E-01  7.14285714E-02
                       5.00000000E-01  6.07142857E-01  1.07142857E-01
                       5.00000000E-01  6.42857143E-01  1.42857143E-01
                       5.00000000E-01  6.78571429E-01  1.78571429E-01
                       5.00000000E-01  7.14285714E-01  2.14285714E-01
                       5.00000000E-01  7.50000000E-01  2.50000000E-01
                       4.75000000E-01  7.50000000E-01  2.75000000E-01
                       4.50000000E-01  7.50000000E-01  3.00000000E-01
                       4.25000000E-01  7.50000000E-01  3.25000000E-01
                       4.00000000E-01  7.50000000E-01  3.50000000E-01
                       3.75000000E-01  7.50000000E-01  3.75000000E-01
                       3.50000000E-01  7.00000000E-01  3.50000000E-01
                       3.25000000E-01  6.50000000E-01  3.25000000E-01
                       3.00000000E-01  6.00000000E-01  3.00000000E-01
                       2.75000000E-01  5.50000000E-01  2.75000000E-01
                       2.50000000E-01  5.00000000E-01  2.50000000E-01
                       2.25000000E-01  4.50000000E-01  2.25000000E-01
                       2.00000000E-01  4.00000000E-01  2.00000000E-01
                       1.75000000E-01  3.50000000E-01  1.75000000E-01
                       1.50000000E-01  3.00000000E-01  1.50000000E-01
                       1.25000000E-01  2.50000000E-01  1.25000000E-01
                       1.00000000E-01  2.00000000E-01  1.00000000E-01
                       7.50000000E-02  1.50000000E-01  7.50000000E-02
                       5.00000000E-02  1.00000000E-01  5.00000000E-02
                       2.50000000E-02  5.00000000E-02  2.50000000E-02
                       0.00000000E+00  0.00000000E+00  0.00000000E+00
                       3.84615385E-02  3.84615385E-02  3.84615385E-02
                       7.69230769E-02  7.69230769E-02  7.69230769E-02
                       1.15384615E-01  1.15384615E-01  1.15384615E-01
                       1.53846154E-01  1.53846154E-01  1.53846154E-01
                       1.92307692E-01  1.92307692E-01  1.92307692E-01
                       2.30769231E-01  2.30769231E-01  2.30769231E-01
                       2.69230769E-01  2.69230769E-01  2.69230769E-01
              kpt4     0.00000000E+00  0.00000000E+00 -1.66666667E-01
                       0.00000000E+00  0.00000000E+00  5.00000000E-01
                       0.00000000E+00  1.66666667E-01 -3.33333333E-01
                       1.66666667E-01  1.66666667E-01 -1.66666667E-01
                       0.00000000E+00  3.33333333E-01  5.00000000E-01
                       1.66666667E-01  3.33333333E-01 -3.33333333E-01
                       outvar_i_n : Printing only first  50 k-points.
           kptopt1          4
           kptopt2         -9
           kptopt3         -9
           kptopt4          4
         kptrlatt1       4    4   -4     -4    4   -4     -4    4    4
         kptrlatt4      -3    3    3      3   -3    3      3    3   -3
          kptrlen1     3.26310711E+01
          kptrlen2     3.00000000E+01
          kptrlen3     3.00000000E+01
          kptrlen4     2.44733033E+01
P           mkmem1          2
P           mkmem2          6
P           mkmem3          6
P           mkmem4          2
            natom           2
           natsph3       2
           natsph4       2
            nband1         40
            nband2         40
            nband3         40
            nband4         40
           nbdbuf1          0
           nbdbuf2          2
           nbdbuf3          2
           nbdbuf4          2
           ndtset           4
            ngfft          24      24      24
          ngfftdg          36      36      36
             nkpt1         10
             nkpt2         89
             nkpt3         89
             nkpt4          6
-           npfft1          3
-           npfft2          1
-           npfft3          1
-           npfft4          4
-           npkpt1          5
-           npkpt2         16
-           npkpt3         16
-           npkpt4          4
            nstep1        100
            nstep2         30
            nstep3         30
            nstep4         30
             nsym          48
           ntypat           2
              occ1     2.000000  2.000000  2.000000  2.000000  2.000000  2.000000
                       2.000000  2.000000  2.000000  2.000000  2.000000  0.000000
                       0.000000  0.000000  0.000000  0.000000  0.000000  0.000000
                       0.000000  0.000000  0.000000  0.000000  0.000000  0.000000
                       0.000000  0.000000  0.000000  0.000000  0.000000  0.000000
                       0.000000  0.000000  0.000000  0.000000  0.000000  0.000000
                       0.000000  0.000000  0.000000  0.000000
                       2.000000  2.000000  2.000000  2.000000  2.000000  2.000000
                       2.000000  2.000000  2.000000  2.000000  2.000000  0.000000
                       0.000000  0.000000  0.000000  0.000000  0.000000  0.000000
                       0.000000  0.000000  0.000000  0.000000  0.000000  0.000000
                       0.000000  0.000000  0.000000  0.000000  0.000000  0.000000
                       0.000000  0.000000  0.000000  0.000000  0.000000  0.000000
                       0.000000  0.000000  0.000000  0.000000
                       2.000000  2.000000  2.000000  2.000000  2.000000  2.000000
                       2.000000  2.000000  2.000000  2.000000  2.000000  0.000000
                       0.000000  0.000000  0.000000  0.000000  0.000000  0.000000
                       0.000000  0.000000  0.000000  0.000000  0.000000  0.000000
                       0.000000  0.000000  0.000000  0.000000  0.000000  0.000000
                       0.000000  0.000000  0.000000  0.000000  0.000000  0.000000
                       0.000000  0.000000  0.000000  0.000000
                       2.000000  2.000000  2.000000  2.000000  2.000000  2.000000
                       2.000000  2.000000  2.000000  2.000000  2.000000  0.000000
                       0.000000  0.000000  0.000000  0.000000  0.000000  0.000000
                       0.000000  0.000000  0.000000  0.000000  0.000000  0.000000
                       0.000000  0.000000  0.000000  0.000000  0.000000  0.000000
                       0.000000  0.000000  0.000000  0.000000  0.000000  0.000000
                       0.000000  0.000000  0.000000  0.000000
                       2.000000  2.000000  2.000000  2.000000  2.000000  2.000000
                       2.000000  2.000000  2.000000  2.000000  2.000000  0.000000
                       0.000000  0.000000  0.000000  0.000000  0.000000  0.000000
                       0.000000  0.000000  0.000000  0.000000  0.000000  0.000000
                       0.000000  0.000000  0.000000  0.000000  0.000000  0.000000
                       0.000000  0.000000  0.000000  0.000000  0.000000  0.000000
                       0.000000  0.000000  0.000000  0.000000
                       2.000000  2.000000  2.000000  2.000000  2.000000  2.000000
                       2.000000  2.000000  2.000000  2.000000  2.000000  0.000000
                       0.000000  0.000000  0.000000  0.000000  0.000000  0.000000
                       0.000000  0.000000  0.000000  0.000000  0.000000  0.000000
                       0.000000  0.000000  0.000000  0.000000  0.000000  0.000000
                       0.000000  0.000000  0.000000  0.000000  0.000000  0.000000
                       0.000000  0.000000  0.000000  0.000000
                       2.000000  2.000000  2.000000  2.000000  2.000000  2.000000
                       2.000000  2.000000  2.000000  2.000000  2.000000  0.000000
                       0.000000  0.000000  0.000000  0.000000  0.000000  0.000000
                       0.000000  0.000000  0.000000  0.000000  0.000000  0.000000
                       0.000000  0.000000  0.000000  0.000000  0.000000  0.000000
                       0.000000  0.000000  0.000000  0.000000  0.000000  0.000000
                       0.000000  0.000000  0.000000  0.000000
                       2.000000  2.000000  2.000000  2.000000  2.000000  2.000000
                       2.000000  2.000000  2.000000  2.000000  2.000000  0.000000
                       0.000000  0.000000  0.000000  0.000000  0.000000  0.000000
                       0.000000  0.000000  0.000000  0.000000  0.000000  0.000000
                       0.000000  0.000000  0.000000  0.000000  0.000000  0.000000
                       0.000000  0.000000  0.000000  0.000000  0.000000  0.000000
                       0.000000  0.000000  0.000000  0.000000
                       2.000000  2.000000  2.000000  2.000000  2.000000  2.000000
                       2.000000  2.000000  2.000000  2.000000  2.000000  0.000000
                       0.000000  0.000000  0.000000  0.000000  0.000000  0.000000
                       0.000000  0.000000  0.000000  0.000000  0.000000  0.000000
                       0.000000  0.000000  0.000000  0.000000  0.000000  0.000000
                       0.000000  0.000000  0.000000  0.000000  0.000000  0.000000
                       0.000000  0.000000  0.000000  0.000000
                       2.000000  2.000000  2.000000  2.000000  2.000000  2.000000
                       2.000000  2.000000  2.000000  2.000000  2.000000  0.000000
                       0.000000  0.000000  0.000000  0.000000  0.000000  0.000000
                       0.000000  0.000000  0.000000  0.000000  0.000000  0.000000
                       0.000000  0.000000  0.000000  0.000000  0.000000  0.000000
                       0.000000  0.000000  0.000000  0.000000  0.000000  0.000000
                       0.000000  0.000000  0.000000  0.000000
              occ4     2.000000  2.000000  2.000000  2.000000  2.000000  2.000000
                       2.000000  2.000000  2.000000  2.000000  2.000000  0.000000
                       0.000000  0.000000  0.000000  0.000000  0.000000  0.000000
                       0.000000  0.000000  0.000000  0.000000  0.000000  0.000000
                       0.000000  0.000000  0.000000  0.000000  0.000000  0.000000
                       0.000000  0.000000  0.000000  0.000000  0.000000  0.000000
                       0.000000  0.000000  0.000000  0.000000
                       2.000000  2.000000  2.000000  2.000000  2.000000  2.000000
                       2.000000  2.000000  2.000000  2.000000  2.000000  0.000000
                       0.000000  0.000000  0.000000  0.000000  0.000000  0.000000
                       0.000000  0.000000  0.000000  0.000000  0.000000  0.000000
                       0.000000  0.000000  0.000000  0.000000  0.000000  0.000000
                       0.000000  0.000000  0.000000  0.000000  0.000000  0.000000
                       0.000000  0.000000  0.000000  0.000000
                       2.000000  2.000000  2.000000  2.000000  2.000000  2.000000
                       2.000000  2.000000  2.000000  2.000000  2.000000  0.000000
                       0.000000  0.000000  0.000000  0.000000  0.000000  0.000000
                       0.000000  0.000000  0.000000  0.000000  0.000000  0.000000
                       0.000000  0.000000  0.000000  0.000000  0.000000  0.000000
                       0.000000  0.000000  0.000000  0.000000  0.000000  0.000000
                       0.000000  0.000000  0.000000  0.000000
                       2.000000  2.000000  2.000000  2.000000  2.000000  2.000000
                       2.000000  2.000000  2.000000  2.000000  2.000000  0.000000
                       0.000000  0.000000  0.000000  0.000000  0.000000  0.000000
                       0.000000  0.000000  0.000000  0.000000  0.000000  0.000000
                       0.000000  0.000000  0.000000  0.000000  0.000000  0.000000
                       0.000000  0.000000  0.000000  0.000000  0.000000  0.000000
                       0.000000  0.000000  0.000000  0.000000
                       2.000000  2.000000  2.000000  2.000000  2.000000  2.000000
                       2.000000  2.000000  2.000000  2.000000  2.000000  0.000000
                       0.000000  0.000000  0.000000  0.000000  0.000000  0.000000
                       0.000000  0.000000  0.000000  0.000000  0.000000  0.000000
                       0.000000  0.000000  0.000000  0.000000  0.000000  0.000000
                       0.000000  0.000000  0.000000  0.000000  0.000000  0.000000
                       0.000000  0.000000  0.000000  0.000000
                       2.000000  2.000000  2.000000  2.000000  2.000000  2.000000
                       2.000000  2.000000  2.000000  2.000000  2.000000  0.000000
                       0.000000  0.000000  0.000000  0.000000  0.000000  0.000000
                       0.000000  0.000000  0.000000  0.000000  0.000000  0.000000
                       0.000000  0.000000  0.000000  0.000000  0.000000  0.000000
                       0.000000  0.000000  0.000000  0.000000  0.000000  0.000000
                       0.000000  0.000000  0.000000  0.000000
           occopt           7
        paral_kgb1          1
        paral_kgb2          0
        paral_kgb3          0
        paral_kgb4          1
        pawecutdg      4.50000000E+01 Hartree
        pawfatbnd1          0
        pawfatbnd2          0
        pawfatbnd3          2
        pawfatbnd4          0
         pawmixdg1          1
         pawmixdg2          0
         pawmixdg3          0
         pawmixdg4          1
        pawprtdos1          0
        pawprtdos2          0
        pawprtdos3          0
        pawprtdos4          2
           prtdos1          0
           prtdos2          0
           prtdos3          0
           prtdos4          3
            rprim      2.1584523900E+00  0.0000000000E+00  2.1584523900E+00
                       2.1584523900E+00  2.1584523900E+00  0.0000000000E+00
                       0.0000000000E+00  2.1584523900E+00  2.1584523900E+00
           shiftk      5.00000000E-01  5.00000000E-01  5.00000000E-01
          spgroup         225
           symrel      1  0  0   0  1  0   0  0  1      -1  0  0   0 -1  0   0  0 -1
                       0 -1  1   0 -1  0   1 -1  0       0  1 -1   0  1  0  -1  1  0
                      -1  0  0  -1  0  1  -1  1  0       1  0  0   1  0 -1   1 -1  0
                       0  1 -1   1  0 -1   0  0 -1       0 -1  1  -1  0  1   0  0  1
                      -1  0  0  -1  1  0  -1  0  1       1  0  0   1 -1  0   1  0 -1
                       0 -1  1   1 -1  0   0 -1  0       0  1 -1  -1  1  0   0  1  0
                       1  0  0   0  0  1   0  1  0      -1  0  0   0  0 -1   0 -1  0
                       0  1 -1   0  0 -1   1  0 -1       0 -1  1   0  0  1  -1  0  1
                      -1  0  1  -1  1  0  -1  0  0       1  0 -1   1 -1  0   1  0  0
                       0 -1  0   1 -1  0   0 -1  1       0  1  0  -1  1  0   0  1 -1
                       1  0 -1   0  0 -1   0  1 -1      -1  0  1   0  0  1   0 -1  1
                       0  1  0   0  0  1   1  0  0       0 -1  0   0  0 -1  -1  0  0
                       1  0 -1   0  1 -1   0  0 -1      -1  0  1   0 -1  1   0  0  1
                       0 -1  0   0 -1  1   1 -1  0       0  1  0   0  1 -1  -1  1  0
                      -1  0  1  -1  0  0  -1  1  0       1  0 -1   1  0  0   1 -1  0
                       0  1  0   1  0  0   0  0  1       0 -1  0  -1  0  0   0  0 -1
                       0  0 -1   0  1 -1   1  0 -1       0  0  1   0 -1  1  -1  0  1
                       1 -1  0   0 -1  1   0 -1  0      -1  1  0   0  1 -1   0  1  0
                       0  0  1   1  0  0   0  1  0       0  0 -1  -1  0  0   0 -1  0
                      -1  1  0  -1  0  0  -1  0  1       1 -1  0   1  0  0   1  0 -1
                       0  0  1   0  1  0   1  0  0       0  0 -1   0 -1  0  -1  0  0
                       1 -1  0   0 -1  0   0 -1  1      -1  1  0   0  1  0   0  1 -1
                       0  0 -1   1  0 -1   0  1 -1       0  0  1  -1  0  1   0 -1  1
                      -1  1  0  -1  0  1  -1  0  0       1 -1  0   1  0 -1   1  0  0
           tolvrs1     1.00000000E-03
           tolvrs2     0.00000000E+00
           tolvrs3     0.00000000E+00
           tolvrs4     0.00000000E+00
           tolwfr1     0.00000000E+00
           tolwfr2     1.00000000E-08
           tolwfr3     1.00000000E-08
           tolwfr4     1.00000000E-08
            typat      1  2
           useylm           1
         wfoptalg1        114
         wfoptalg2         10
         wfoptalg3         10
         wfoptalg4        114
              wtk1       0.03125    0.09375    0.09375    0.03125    0.09375    0.09375
                         0.18750    0.09375    0.09375    0.18750
              wtk2       1.00000    1.00000    1.00000    1.00000    1.00000    1.00000
                         1.00000    1.00000    1.00000    1.00000    1.00000    1.00000
                         1.00000    1.00000    1.00000    1.00000    1.00000    1.00000
                         1.00000    1.00000    1.00000    1.00000    1.00000    1.00000
                         1.00000    1.00000    1.00000    1.00000    1.00000    1.00000
                         1.00000    1.00000    1.00000    1.00000    1.00000    1.00000
                         1.00000    1.00000    1.00000    1.00000    1.00000    1.00000
                         1.00000    1.00000    1.00000    1.00000    1.00000    1.00000
                         1.00000    1.00000
              wtk3       1.00000    1.00000    1.00000    1.00000    1.00000    1.00000
                         1.00000    1.00000    1.00000    1.00000    1.00000    1.00000
                         1.00000    1.00000    1.00000    1.00000    1.00000    1.00000
                         1.00000    1.00000    1.00000    1.00000    1.00000    1.00000
                         1.00000    1.00000    1.00000    1.00000    1.00000    1.00000
                         1.00000    1.00000    1.00000    1.00000    1.00000    1.00000
                         1.00000    1.00000    1.00000    1.00000    1.00000    1.00000
                         1.00000    1.00000    1.00000    1.00000    1.00000    1.00000
                         1.00000    1.00000
              wtk4       0.07407    0.03704    0.22222    0.22222    0.22222    0.22222
                       outvars : Printing only first  50 k-points.
           xangst      0.0000000000E+00  0.0000000000E+00  0.0000000000E+00
                       0.0000000000E+00  0.0000000000E+00  2.1584523900E+00
            xcart      0.0000000000E+00  0.0000000000E+00  0.0000000000E+00
                       0.0000000000E+00  0.0000000000E+00  4.0788838880E+00
             xred      0.0000000000E+00  0.0000000000E+00  0.0000000000E+00
                       5.0000000000E-01 -5.0000000000E-01  5.0000000000E-01
            znucl       26.00000    8.00000

================================================================================

 chkinp: Checking input parameters for consistency, jdtset=   1.

 chkinp: Checking input parameters for consistency, jdtset=   2.

 chkinp: Checking input parameters for consistency, jdtset=   3.

 chkinp: Checking input parameters for consistency, jdtset=   4.

================================================================================
== DATASET  1 ==================================================================
-   nproc =   15

 Exchange-correlation functional for the present dataset will be:
  GGA: Perdew-Burke-Ernzerhof functional - ixc=11
 Citation for XC functional:
  J.P.Perdew, K.Burke, M.Ernzerhof, PRL 77, 3865 (1996)

 Real(R)+Recip(G) space primitive vectors, cartesian coordinates (Bohr,Bohr^-1):
 R(1)=  4.0788839  0.0000000  4.0788839  G(1)=  0.1225826 -0.1225826  0.1225826
 R(2)=  4.0788839  4.0788839  0.0000000  G(2)=  0.1225826  0.1225826 -0.1225826
 R(3)=  0.0000000  4.0788839  4.0788839  G(3)= -0.1225826  0.1225826  0.1225826
 Unit cell volume ucvol=  1.3572318E+02 bohr^3
 Angles (23,13,12)=  6.00000000E+01  6.00000000E+01  6.00000000E+01 degrees

 Coarse grid specifications (used for wave-functions):

 getcut: wavevector=  0.0000  0.0000  0.0000  ngfft=  24  24  24
         ecut(hartree)=     15.000   => boxcut(ratio)=   2.38640

 getcut : COMMENT -
  Note that boxcut > 2.2 ; recall that boxcut=Gcut(box)/Gcut(sphere) = 2
  is sufficient for exact treatment of convolution.
  Such a large boxcut is a waste : you could raise ecut
  e.g. ecut=   21.355983 Hartrees makes boxcut=2


 Fine grid specifications (used for densities):

 getcut: wavevector=  0.0000  0.0000  0.0000  ngfft=  36  36  36
         ecut(hartree)=     45.000   => boxcut(ratio)=   2.06669

--- Pseudopotential description ------------------------------------------------
- pspini: atom type   1  psp file is ./fe_pbe_v1.2_abinit.paw
- pspatm: opening atomic psp file    ./fe_pbe_v1.2_abinit.paw
- Fe - PAW data extracted from US-psp (D.Vanderbilt) - generated by USpp2Abinit v2.4.0
- 26.00000  16.00000  20140203                znucl, zion, pspdat
    7   11    2    0       584   0.00000      pspcod,pspxc,lmax,lloc,mmax,r2well
 Pseudopotential format is: paw4
 basis_size (lnmax)=  6 (lmn_size= 18), orbitals=   0   0   1   1   2   2
 Spheres core radius: rc_sph= 1.71336280
 4 radial meshes are used:
  - mesh 1: r(i)=AA*[exp(BB*(i-1))-1], size= 584 , AA= 0.95337E-04 BB= 0.16949E-01
  - mesh 2: r(i)=AA*[exp(BB*(i-1))-1], size= 580 , AA= 0.95337E-04 BB= 0.16949E-01
  - mesh 3: r(i)=AA*[exp(BB*(i-1))-1], size= 683 , AA= 0.95337E-04 BB= 0.16949E-01
  - mesh 4: r(i)=AA*[exp(BB*(i-1))-1], size= 695 , AA= 0.95337E-04 BB= 0.16949E-01
 Shapefunction is BESSEL type: shapef(r,l)=aa(1,l)*jl(q(1,l)*r)+aa(2,l)*jl(q(2,l)*r)
 Radius for shape functions = sphere core radius
 Radial grid used for partial waves is grid 1
 Radial grid used for projectors is grid  2
 Radial grid used for (t)core density is grid 1
 Radial grid used for Vloc is grid 3
 Radial grid used for pseudo valence density is grid 4
 Compensation charge density is taken into account in XC energy/potential
 pspatm: atomic psp has been read  and splines computed

- pspini: atom type   2  psp file is ./o_pbe_v1.2_abinit.paw
- pspatm: opening atomic psp file    ./o_pbe_v1.2_abinit.paw
- O - PAW data extracted from US-psp (D.Vanderbilt) - generated by USpp2Abinit v2.4.0
-  8.00000   6.00000  20140203                znucl, zion, pspdat
    7   11    2    0       494   0.00000      pspcod,pspxc,lmax,lloc,mmax,r2well
 Pseudopotential format is: paw4
 basis_size (lnmax)=  5 (lmn_size= 13), orbitals=   0   0   1   1   2
 Spheres core radius: rc_sph= 1.21105161
 5 radial meshes are used:
  - mesh 1: r(i)=AA*[exp(BB*(i-1))-1], size= 494 , AA= 0.30984E-03 BB= 0.16949E-01
  - mesh 2: r(i)=AA*[exp(BB*(i-1))-1], size= 490 , AA= 0.30984E-03 BB= 0.16949E-01
  - mesh 3: r(i)=AA*[exp(BB*(i-1))-1], size= 506 , AA= 0.30984E-03 BB= 0.16949E-01
  - mesh 4: r(i)=AA*[exp(BB*(i-1))-1], size= 613 , AA= 0.30984E-03 BB= 0.16949E-01
  - mesh 5: r(i)=AA*[exp(BB*(i-1))-1], size= 623 , AA= 0.30984E-03 BB= 0.16949E-01
 Shapefunction is BESSEL type: shapef(r,l)=aa(1,l)*jl(q(1,l)*r)+aa(2,l)*jl(q(2,l)*r)
 Radius for shape functions = sphere core radius
 Radial grid used for partial waves is grid 1
 Radial grid used for projectors is grid  2
 Radial grid used for (t)core density is grid 3
 Radial grid used for Vloc is grid 4
 Radial grid used for pseudo valence density is grid 5
 Compensation charge density is taken into account in XC energy/potential
 pspatm: atomic psp has been read  and splines computed

   6.08163965E+02                                ecore*ucvol(ha*bohr**3)
--------------------------------------------------------------------------------

_setup2: Arith. and geom. avg. npw (full set) are     128.813     128.795

================================================================================

     iter   Etot(hartree)      deltaE(h)  residm     nres2
 ETOT  1  -141.19463265355    -1.412E+02 7.148E-04 6.573E+02
 ETOT  2  -143.93368081037    -2.739E+00 1.306E-04 2.173E+03
 ETOT  3  -140.48798766418     3.446E+00 1.999E-02 1.084E+01
 ETOT  4  -140.51024098174    -2.225E-02 8.206E-05 5.470E+00
 ETOT  5  -140.51017995725     6.102E-05 8.870E-06 6.932E-01
 ETOT  6  -140.50926289531     9.171E-04 6.207E-06 1.966E-01
 ETOT  7  -140.50927691968    -1.402E-05 5.435E-06 1.666E-01
 ETOT  8  -140.50933484888    -5.793E-05 6.875E-06 1.028E-03
 ETOT  9  -140.50933342497     1.424E-06 5.265E-06 1.707E-04

 At SCF step    9       nres2   =  1.71E-04 < tolvrs=  1.00E-03 =>converged.

 Cartesian components of stress tensor (hartree/bohr^3)
  sigma(1 1)=  1.21545049E-03  sigma(3 2)=  0.00000000E+00
  sigma(2 2)=  1.21545049E-03  sigma(3 1)=  0.00000000E+00
  sigma(3 3)=  1.21545049E-03  sigma(2 1)=  0.00000000E+00

 Integrated electronic density in atomic spheres:
 ------------------------------------------------
 Atom  Sphere_radius  Integrated_density
    1        1.71336         13.24779741
    2        1.21105          3.70443792

 PAW TEST:
 ==== Compensation charge inside spheres ============
 The following values must be close to each other ...
 Compensation charge over spherical meshes =      7.654829294483008
 Compensation charge over fine fft grid    =      7.656305906896170

 ==== Results concerning PAW augmentation regions ====

 Total pseudopotential strength Dij (hartree):
 Atom #  1
  -1.04311   0.17388   0.00000   0.00000   0.00000   0.00000   0.00000   0.00000   0.00000   0.00000   0.00000   0.00000 ...
   0.17388   0.04825   0.00000   0.00000   0.00000   0.00000   0.00000   0.00000   0.00000   0.00000   0.00000   0.00000 ...
   0.00000   0.00000  -1.57677   0.00000   0.00000   0.15686   0.00000   0.00000   0.00000   0.00000   0.00000   0.00000 ...
   0.00000   0.00000   0.00000  -1.57677   0.00000   0.00000   0.15686   0.00000   0.00000   0.00000   0.00000   0.00000 ...
   0.00000   0.00000   0.00000   0.00000  -1.57677   0.00000   0.00000   0.15686   0.00000   0.00000   0.00000   0.00000 ...
   0.00000   0.00000   0.15686   0.00000   0.00000   0.04766   0.00000   0.00000   0.00000   0.00000   0.00000   0.00000 ...
   0.00000   0.00000   0.00000   0.15686   0.00000   0.00000   0.04766   0.00000   0.00000   0.00000   0.00000   0.00000 ...
   0.00000   0.00000   0.00000   0.00000   0.15686   0.00000   0.00000   0.04766   0.00000   0.00000   0.00000   0.00000 ...
   0.00000   0.00000   0.00000   0.00000   0.00000   0.00000   0.00000   0.00000  -0.17977   0.00000   0.00000   0.00000 ...
   0.00000   0.00000   0.00000   0.00000   0.00000   0.00000   0.00000   0.00000   0.00000  -0.17977   0.00000   0.00000 ...
   0.00000   0.00000   0.00000   0.00000   0.00000   0.00000   0.00000   0.00000   0.00000   0.00000  -0.18655   0.00000 ...
   0.00000   0.00000   0.00000   0.00000   0.00000   0.00000   0.00000   0.00000   0.00000   0.00000   0.00000  -0.17977 ...
   ...  only 12  components have been written...
 Atom #  2
   0.79269   1.69857   0.00000   0.00000   0.00000   0.00000   0.00000   0.00000   0.00000   0.00000   0.00000   0.00000 ...
   1.69857   3.63241   0.00000   0.00000   0.00000   0.00000   0.00000   0.00000   0.00000   0.00000   0.00000   0.00000 ...
   0.00000   0.00000  -0.25365   0.00000   0.00000  -0.37954   0.00000   0.00000   0.00000   0.00000   0.00000   0.00000 ...
   0.00000   0.00000   0.00000  -0.25365   0.00000   0.00000  -0.37954   0.00000   0.00000   0.00000   0.00000   0.00000 ...
   0.00000   0.00000   0.00000   0.00000  -0.25365   0.00000   0.00000  -0.37954   0.00000   0.00000   0.00000   0.00000 ...
   0.00000   0.00000  -0.37954   0.00000   0.00000  -0.54763   0.00000   0.00000   0.00000   0.00000   0.00000   0.00000 ...
   0.00000   0.00000   0.00000  -0.37954   0.00000   0.00000  -0.54763   0.00000   0.00000   0.00000   0.00000   0.00000 ...
   0.00000   0.00000   0.00000   0.00000  -0.37954   0.00000   0.00000  -0.54763   0.00000   0.00000   0.00000   0.00000 ...
   0.00000   0.00000   0.00000   0.00000   0.00000   0.00000   0.00000   0.00000   0.01377   0.00000   0.00000   0.00000 ...
   0.00000   0.00000   0.00000   0.00000   0.00000   0.00000   0.00000   0.00000   0.00000   0.01377   0.00000   0.00000 ...
   0.00000   0.00000   0.00000   0.00000   0.00000   0.00000   0.00000   0.00000   0.00000   0.00000   0.01375   0.00000 ...
   0.00000   0.00000   0.00000   0.00000   0.00000   0.00000   0.00000   0.00000   0.00000   0.00000   0.00000   0.01377 ...
   ...  only 12  components have been written...


 Augmentation waves occupancies Rhoij:
 Atom #  1
   2.00895   0.05889   0.00000   0.00000   0.00000   0.00000   0.00000   0.00000   0.00000   0.00000   0.00000   0.00000 ...
   0.05889   0.32350   0.00000   0.00000   0.00000   0.00000   0.00000   0.00000   0.00000   0.00000   0.00000   0.00000 ...
   0.00000   0.00000   2.01205   0.00000   0.00000   0.11450   0.00000   0.00000   0.00000   0.00000   0.00000   0.00000 ...
   0.00000   0.00000   0.00000   2.01205   0.00000   0.00000   0.11450   0.00000   0.00000   0.00000   0.00000   0.00000 ...
   0.00000   0.00000   0.00000   0.00000   2.01205   0.00000   0.00000   0.11450   0.00000   0.00000   0.00000   0.00000 ...
   0.00000   0.00000   0.11450   0.00000   0.00000   0.24490   0.00000   0.00000   0.00000   0.00000   0.00000   0.00000 ...
   0.00000   0.00000   0.00000   0.11450   0.00000   0.00000   0.24490   0.00000   0.00000   0.00000   0.00000   0.00000 ...
   0.00000   0.00000   0.00000   0.00000   0.11450   0.00000   0.00000   0.24490   0.00000   0.00000   0.00000   0.00000 ...
   0.00000   0.00000   0.00000   0.00000   0.00000   0.00000   0.00000   0.00000   2.14709   0.00000   0.00000   0.00000 ...
   0.00000   0.00000   0.00000   0.00000   0.00000   0.00000   0.00000   0.00000   0.00000   2.14709   0.00000   0.00000 ...
   0.00000   0.00000   0.00000   0.00000   0.00000   0.00000   0.00000   0.00000   0.00000   0.00000   1.15809   0.00000 ...
   0.00000   0.00000   0.00000   0.00000   0.00000   0.00000   0.00000   0.00000   0.00000   0.00000   0.00000   2.14709 ...
   ...  only 12  components have been written...
 Atom #  2
   2.11138  -0.07437   0.00000   0.00000   0.00000   0.00000   0.00000   0.00000   0.00000   0.00000   0.00000   0.00000 ...
  -0.07437   0.00751   0.00000   0.00000   0.00000   0.00000   0.00000   0.00000   0.00000   0.00000   0.00000   0.00000 ...
   0.00000   0.00000   2.90599   0.00000   0.00000  -0.52758   0.00000   0.00000   0.00000   0.00000   0.00000   0.00000 ...
   0.00000   0.00000   0.00000   2.90599   0.00000   0.00000  -0.52758   0.00000   0.00000   0.00000   0.00000   0.00000 ...
   0.00000   0.00000   0.00000   0.00000   2.90599   0.00000   0.00000  -0.52758   0.00000   0.00000   0.00000   0.00000 ...
   0.00000   0.00000  -0.52758   0.00000   0.00000   0.10449   0.00000   0.00000   0.00000   0.00000   0.00000   0.00000 ...
   0.00000   0.00000   0.00000  -0.52758   0.00000   0.00000   0.10449   0.00000   0.00000   0.00000   0.00000   0.00000 ...
   0.00000   0.00000   0.00000   0.00000  -0.52758   0.00000   0.00000   0.10449   0.00000   0.00000   0.00000   0.00000 ...
   0.00000   0.00000   0.00000   0.00000   0.00000   0.00000   0.00000   0.00000   0.00668   0.00000   0.00000   0.00000 ...
   0.00000   0.00000   0.00000   0.00000   0.00000   0.00000   0.00000   0.00000   0.00000   0.00668   0.00000   0.00000 ...
   0.00000   0.00000   0.00000   0.00000   0.00000   0.00000   0.00000   0.00000   0.00000   0.00000   0.00460   0.00000 ...
   0.00000   0.00000   0.00000   0.00000   0.00000   0.00000   0.00000   0.00000   0.00000   0.00000   0.00000   0.00668 ...
   ...  only 12  components have been written...


================================================================================

 ----iterations are completed or convergence reached----

 Mean square residual over all n,k,spin=   1.5456E-08; max=  5.2645E-06
 reduced coordinates (array xred) for    2 atoms
       0.000000000000      0.000000000000      0.000000000000
       0.500000000000     -0.500000000000      0.500000000000
 rms dE/dt=  0.0000E+00; max dE/dt=  0.0000E+00; dE/dt below (all hartree)
    1       0.000000000000      0.000000000000      0.000000000000
    2       0.000000000000      0.000000000000      0.000000000000

 cartesian coordinates (angstrom) at end:
    1      0.00000000000000     0.00000000000000     0.00000000000000
    2      0.00000000000000     0.00000000000000     2.15845239000000

 cartesian forces (hartree/bohr) at end:
    1     -0.00000000000000    -0.00000000000000    -0.00000000000000
    2     -0.00000000000000    -0.00000000000000    -0.00000000000000
 frms,max,avg= 0.0000000E+00 0.0000000E+00   0.000E+00  0.000E+00  0.000E+00 h/b

 cartesian forces (eV/Angstrom) at end:
    1     -0.00000000000000    -0.00000000000000    -0.00000000000000
    2     -0.00000000000000    -0.00000000000000    -0.00000000000000
 frms,max,avg= 0.0000000E+00 0.0000000E+00   0.000E+00  0.000E+00  0.000E+00 e/A
 length scales=  1.889726132886  1.889726132886  1.889726132886 bohr
              =  1.000000000000  1.000000000000  1.000000000000 angstroms
 prteigrs : about to open file abinit_o_DS1_EIG
 Fermi (or HOMO) energy (hartree) =   0.31391   Average Vxc (hartree)=  -0.46343
 Eigenvalues (hartree) for nkpt=  10  k points:
 kpt#   1, nband= 40, wtk=  0.03125, kpt= -0.1250  0.0000  0.0000 (reduced coord)
  -2.87743   -1.63090   -1.63060   -1.63060   -0.43384    0.14229    0.16233    0.16233
   0.27229    0.27229    0.27338    0.29943    0.29943    0.37882    0.83399    0.95834
   0.95834    1.00002    1.08266    1.08266    1.17911    1.30229    1.30229    1.46192
   1.51490    1.51490    1.69188    1.97019    1.97019    2.12240    2.24412    2.24598
   2.24598    2.33533    2.40024    2.40024    2.70343    2.70343    2.72886    2.81691
      occupation numbers for kpt#   1
   2.00000    2.00000    2.00000    2.00000    2.00000    2.00000    2.00000    2.00000
   2.00000    2.00000    2.00000    1.95939    1.95939    0.00000    0.00000    0.00000
   0.00000    0.00000    0.00000    0.00000    0.00000    0.00000    0.00000    0.00000
   0.00000    0.00000    0.00000    0.00000    0.00000    0.00000    0.00000    0.00000
   0.00000    0.00000    0.00000    0.00000    0.00000    0.00000    0.00000    0.00000
 prteigrs : prtvol=0 or 1, do not print more k-points.


--------------------------------------------------------------------------------
 Components of total free energy (in Hartree) :

    Kinetic energy  =  2.37300699944785E+01
    Hartree energy  =  3.66561182023260E+01
    XC energy       = -1.75610433712865E+01
    Ewald energy    = -9.48794132199128E+01
    PspCore energy  =  4.48091453166479E+00
    Loc. psp. energy= -1.05334811190637E+02
    Spherical terms =  1.24043510854435E+01
    >>>>> Internal E= -1.40503813967923E+02

    -kT*entropy     = -9.24661136928366E-03
    >>>>>>>>> Etotal= -1.40513060579293E+02

 "Double-counting" decomposition of free energy:
    Band energy     = -1.40031280103198E+01
    Ewald energy    = -9.48794132199128E+01
    PspCore energy  =  4.48091453166479E+00
    Dble-C XC-energy= -3.28712669383743E+01
    Spherical terms = -3.22719317665975E+00
    >>>>> Internal E= -1.40500086813602E+02

    -kT*entropy     = -9.24661136928366E-03
    >>>> Etotal (DC)= -1.40509333424971E+02

  >Total energy in eV           = -3.82355482876656E+03
  >Total DC energy in eV        = -3.82345340773962E+03
--------------------------------------------------------------------------------

 Cartesian components of stress tensor (hartree/bohr^3)
  sigma(1 1)=  1.21545049E-03  sigma(3 2)=  0.00000000E+00
  sigma(2 2)=  1.21545049E-03  sigma(3 1)=  0.00000000E+00
  sigma(3 3)=  1.21545049E-03  sigma(2 1)=  0.00000000E+00

-Cartesian components of stress tensor (GPa)         [Pressure= -3.5760E+01 GPa]
- sigma(1 1)=  3.57597820E+01  sigma(3 2)=  0.00000000E+00
- sigma(2 2)=  3.57597820E+01  sigma(3 1)=  0.00000000E+00
- sigma(3 3)=  3.57597820E+01  sigma(2 1)=  0.00000000E+00

================================================================================
== DATASET  2 ==================================================================
-   nproc =   16

 mkfilename : getden/=0, take file _DEN from output of DATASET   1.

 Exchange-correlation functional for the present dataset will be:
  GGA: Perdew-Burke-Ernzerhof functional - ixc=11
 Citation for XC functional:
  J.P.Perdew, K.Burke, M.Ernzerhof, PRL 77, 3865 (1996)

 Real(R)+Recip(G) space primitive vectors, cartesian coordinates (Bohr,Bohr^-1):
 R(1)=  4.0788839  0.0000000  4.0788839  G(1)=  0.1225826 -0.1225826  0.1225826
 R(2)=  4.0788839  4.0788839  0.0000000  G(2)=  0.1225826  0.1225826 -0.1225826
 R(3)=  0.0000000  4.0788839  4.0788839  G(3)= -0.1225826  0.1225826  0.1225826
 Unit cell volume ucvol=  1.3572318E+02 bohr^3
 Angles (23,13,12)=  6.00000000E+01  6.00000000E+01  6.00000000E+01 degrees

 Coarse grid specifications (used for wave-functions):

 getcut: wavevector=  0.0000  0.0000  0.0000  ngfft=  24  24  24
         ecut(hartree)=     15.000   => boxcut(ratio)=   2.38640

 getcut : COMMENT -
  Note that boxcut > 2.2 ; recall that boxcut=Gcut(box)/Gcut(sphere) = 2
  is sufficient for exact treatment of convolution.
  Such a large boxcut is a waste : you could raise ecut
  e.g. ecut=   21.355983 Hartrees makes boxcut=2


 Fine grid specifications (used for densities):

 getcut: wavevector=  0.0000  0.0000  0.0000  ngfft=  36  36  36
         ecut(hartree)=     45.000   => boxcut(ratio)=   2.06669

--- Pseudopotential description ------------------------------------------------
- pspini: atom type   1  psp file is ./fe_pbe_v1.2_abinit.paw
- pspatm: opening atomic psp file    ./fe_pbe_v1.2_abinit.paw
- Fe - PAW data extracted from US-psp (D.Vanderbilt) - generated by USpp2Abinit v2.4.0
- 26.00000  16.00000  20140203                znucl, zion, pspdat
    7   11    2    0       584   0.00000      pspcod,pspxc,lmax,lloc,mmax,r2well
 Pseudopotential format is: paw4
 basis_size (lnmax)=  6 (lmn_size= 18), orbitals=   0   0   1   1   2   2
 Spheres core radius: rc_sph= 1.71336280
 4 radial meshes are used:
  - mesh 1: r(i)=AA*[exp(BB*(i-1))-1], size= 584 , AA= 0.95337E-04 BB= 0.16949E-01
  - mesh 2: r(i)=AA*[exp(BB*(i-1))-1], size= 580 , AA= 0.95337E-04 BB= 0.16949E-01
  - mesh 3: r(i)=AA*[exp(BB*(i-1))-1], size= 683 , AA= 0.95337E-04 BB= 0.16949E-01
  - mesh 4: r(i)=AA*[exp(BB*(i-1))-1], size= 695 , AA= 0.95337E-04 BB= 0.16949E-01
 Shapefunction is BESSEL type: shapef(r,l)=aa(1,l)*jl(q(1,l)*r)+aa(2,l)*jl(q(2,l)*r)
 Radius for shape functions = sphere core radius
 Radial grid used for partial waves is grid 1
 Radial grid used for projectors is grid  2
 Radial grid used for (t)core density is grid 1
 Radial grid used for Vloc is grid 3
 Radial grid used for pseudo valence density is grid 4
 Compensation charge density is taken into account in XC energy/potential
 pspatm: atomic psp has been read  and splines computed

- pspini: atom type   2  psp file is ./o_pbe_v1.2_abinit.paw
- pspatm: opening atomic psp file    ./o_pbe_v1.2_abinit.paw
- O - PAW data extracted from US-psp (D.Vanderbilt) - generated by USpp2Abinit v2.4.0
-  8.00000   6.00000  20140203                znucl, zion, pspdat
    7   11    2    0       494   0.00000      pspcod,pspxc,lmax,lloc,mmax,r2well
 Pseudopotential format is: paw4
 basis_size (lnmax)=  5 (lmn_size= 13), orbitals=   0   0   1   1   2
 Spheres core radius: rc_sph= 1.21105161
 5 radial meshes are used:
  - mesh 1: r(i)=AA*[exp(BB*(i-1))-1], size= 494 , AA= 0.30984E-03 BB= 0.16949E-01
  - mesh 2: r(i)=AA*[exp(BB*(i-1))-1], size= 490 , AA= 0.30984E-03 BB= 0.16949E-01
  - mesh 3: r(i)=AA*[exp(BB*(i-1))-1], size= 506 , AA= 0.30984E-03 BB= 0.16949E-01
  - mesh 4: r(i)=AA*[exp(BB*(i-1))-1], size= 613 , AA= 0.30984E-03 BB= 0.16949E-01
  - mesh 5: r(i)=AA*[exp(BB*(i-1))-1], size= 623 , AA= 0.30984E-03 BB= 0.16949E-01
 Shapefunction is BESSEL type: shapef(r,l)=aa(1,l)*jl(q(1,l)*r)+aa(2,l)*jl(q(2,l)*r)
 Radius for shape functions = sphere core radius
 Radial grid used for partial waves is grid 1
 Radial grid used for projectors is grid  2
 Radial grid used for (t)core density is grid 3
 Radial grid used for Vloc is grid 4
 Radial grid used for pseudo valence density is grid 5
 Compensation charge density is taken into account in XC energy/potential
 pspatm: atomic psp has been read  and splines computed

--------------------------------------------------------------------------------


================================================================================
 prteigrs : about to open file abinit_o_DS2_EIG
 Non-SCF case, kpt    1 (  0.00000  0.00000  0.00000), residuals and eigenvalues=
  9.16E-09  5.52E-10  1.52E-09  8.69E-09  5.53E-09  1.51E-09  2.25E-09  6.36E-09
  2.17E-09  5.00E-09  8.28E-09  3.77E-10  7.38E-10  8.99E-09  3.39E-09  4.83E-10
  8.67E-10  9.68E-09  1.28E-10  2.48E-10  1.29E-09  6.23E-10  4.00E-09  2.71E-10
  1.41E-09  1.91E-09  2.39E-09  2.96E-09  4.24E-09  7.01E-09  1.35E-09  2.65E-09
  2.28E-09  4.52E-09  7.95E-09  4.74E-09  1.20E-09  8.04E-09  1.61E-08  4.29E-09
 -2.8770E+00 -1.6301E+00 -1.6301E+00 -1.6301E+00 -4.3894E-01  1.7934E-01
  1.7934E-01  1.7934E-01  2.6701E-01  2.6701E-01  2.6701E-01  2.8137E-01
  2.8137E-01  3.4542E-01  8.9907E-01  9.7907E-01  9.7907E-01  9.7907E-01
  1.1201E+00  1.1201E+00  1.1201E+00  1.2229E+00  1.2229E+00  1.5145E+00
  1.5145E+00  1.5145E+00  1.6208E+00  2.1098E+00  2.1098E+00  2.1098E+00
  2.2252E+00  2.2252E+00  2.2536E+00  2.2536E+00  2.2536E+00  2.3269E+00
  2.8524E+00  2.8524E+00  2.8524E+00  2.8996E+00
  prteigrs : nnsclo,ikpt=   30    1 max resid (incl. the buffer)=  1.60740E-08
 Non-SCF case, kpt    2 (  0.03333  0.03333  0.00000), residuals and eigenvalues=
  6.63E-09  4.16E-10  7.61E-10  3.86E-09  2.04E-09  2.48E-09  4.37E-09  6.30E-09
  4.63E-10  6.40E-10  9.36E-09  4.89E-09  3.77E-09  1.68E-09  8.30E-09  7.22E-10
  2.71E-09  5.40E-09  3.40E-10  2.56E-10  2.20E-09  8.40E-10  4.23E-09  8.82E-09
  1.41E-09  6.09E-09  1.05E-09  7.27E-09  1.20E-09  6.53E-09  9.80E-09  5.14E-09
  8.92E-09  1.45E-09  9.15E-09  4.49E-09  8.50E-09  4.24E-09  8.52E-09  9.73E-09
 -2.8770E+00 -1.6302E+00 -1.6301E+00 -1.6301E+00 -4.3842E-01  1.7299E-01
  1.7804E-01  1.7804E-01  2.6650E-01  2.6839E-01  2.6839E-01  2.8155E-01
  2.8479E-01  3.4928E-01  8.9091E-01  9.7380E-01  9.7380E-01  9.9032E-01
  1.0973E+00  1.1278E+00  1.1278E+00  1.2235E+00  1.2427E+00  1.5081E+00
  1.5137E+00  1.5137E+00  1.6294E+00  2.0777E+00  2.0996E+00  2.0996E+00
  2.2271E+00  2.2540E+00  2.2594E+00  2.2644E+00  2.2644E+00  2.3280E+00
  2.8403E+00  2.8421E+00  2.8421E+00  2.8727E+00
 Non-SCF case, kpt    3 (  0.06667  0.06667  0.00000), residuals and eigenvalues=
  5.42E-09  4.09E-09  3.78E-09  8.84E-09  9.75E-09  7.21E-10  8.06E-10  1.53E-09
  2.67E-09  1.61E-09  5.88E-09  1.04E-09  1.69E-09  7.28E-09  1.37E-09  4.88E-09
  8.62E-09  3.33E-09  6.60E-10  1.22E-09  6.24E-09  8.82E-10  1.79E-09  1.81E-09
  6.55E-10  1.63E-09  7.16E-10  2.36E-09  2.73E-09  3.25E-09  7.14E-09  2.91E-09
  4.56E-09  7.04E-09  5.21E-09  5.61E-09  8.91E-09  7.11E-09  2.11E-07  9.98E-09
 -2.8770E+00 -1.6302E+00 -1.6302E+00 -1.6302E+00 -4.3690E-01  1.5863E-01
  1.7499E-01  1.7499E-01  2.6500E-01  2.7229E-01  2.7229E-01  2.8208E-01
  2.9201E-01  3.6089E-01  8.7387E-01  9.6076E-01  9.6076E-01  1.0166E+00
  1.0524E+00  1.1480E+00  1.1480E+00  1.2255E+00  1.2792E+00  1.4946E+00
  1.5117E+00  1.5117E+00  1.6527E+00  2.0202E+00  2.0755E+00  2.0755E+00
  2.2327E+00  2.2553E+00  2.2906E+00  2.2906E+00  2.3232E+00  2.3311E+00
  2.7852E+00  2.7852E+00  2.8093E+00  2.8400E+00
  prteigrs : nnsclo,ikpt=   30    3 max resid (incl. the buffer)=  2.11231E-07
 Non-SCF case, kpt    4 (  0.10000  0.10000  0.00000), residuals and eigenvalues=
  7.88E-10  8.50E-10  2.25E-09  3.98E-09  3.62E-09  4.10E-09  1.18E-09  1.56E-09
  3.59E-09  6.49E-09  8.81E-09  6.00E-10  3.23E-09  6.78E-10  1.83E-09  3.43E-10
  1.76E-09  3.63E-09  1.77E-09  2.81E-10  7.71E-09  1.15E-09  3.39E-09  1.07E-09
  5.18E-10  3.10E-09  4.86E-10  2.99E-09  7.00E-09  8.63E-09  2.00E-09  8.43E-09
  1.95E-09  4.59E-09  3.73E-09  9.56E-09  3.11E-09  5.95E-09  1.12E-05  4.49E-06
 -2.8770E+00 -1.6304E+00 -1.6302E+00 -1.6302E+00 -4.3445E-01  1.4092E-01
  1.7062E-01  1.7062E-01  2.6259E-01  2.7792E-01  2.7792E-01  2.8293E-01
  2.9890E-01  3.7934E-01  8.5545E-01  9.4465E-01  9.4465E-01  1.0022E+00
  1.0503E+00  1.1762E+00  1.1762E+00  1.2289E+00  1.3149E+00  1.4782E+00
  1.5085E+00  1.5085E+00  1.6872E+00  1.9596E+00  2.0463E+00  2.0463E+00
  2.2412E+00  2.2573E+00  2.3217E+00  2.3217E+00  2.3352E+00  2.3940E+00
  2.7034E+00  2.7034E+00  2.7685E+00  2.8226E+00
  prteigrs : nnsclo,ikpt=   30    4 max resid (incl. the buffer)=  1.12328E-05
 Non-SCF case, kpt    5 (  0.13333  0.13333  0.00000), residuals and eigenvalues=
  1.26E-09  1.26E-09  1.39E-09  5.64E-09  5.05E-09  4.00E-09  4.48E-10  5.61E-10
  8.84E-10  5.46E-10  7.73E-10  2.72E-09  4.86E-10  7.13E-09  9.07E-10  2.44E-09
  5.45E-09  8.62E-10  4.18E-09  2.11E-09  6.02E-09  1.25E-09  1.11E-09  1.36E-09
  1.59E-09  3.30E-09  8.67E-09  2.26E-09  2.02E-09  5.98E-09  9.00E-09  7.15E-09
  5.82E-09  1.36E-09  6.87E-09  7.72E-09  8.02E-09  9.88E-09  1.79E-05  2.32E-05
 -2.8770E+00 -1.6305E+00 -1.6303E+00 -1.6303E+00 -4.3123E-01  1.2278E-01
  1.6536E-01  1.6536E-01  2.5934E-01  2.8410E-01  2.8444E-01  2.8444E-01
  3.0447E-01  4.0226E-01  8.3811E-01  9.2845E-01  9.2845E-01  9.5136E-01
  1.0889E+00  1.2093E+00  1.2093E+00  1.2335E+00  1.3439E+00  1.4629E+00
  1.5034E+00  1.5034E+00  1.7312E+00  1.9000E+00  2.0162E+00  2.0162E+00
  2.2513E+00  2.2594E+00  2.3389E+00  2.3494E+00  2.3494E+00  2.4670E+00
  2.6251E+00  2.6251E+00  2.7259E+00  2.7380E+00
  prteigrs : nnsclo,ikpt=   30    5 max resid (incl. the buffer)=  2.31871E-05
 Non-SCF case, kpt    6 (  0.16667  0.16667  0.00000), residuals and eigenvalues=
  1.35E-09  1.13E-09  1.50E-09  4.02E-09  4.91E-09  3.98E-09  6.22E-10  2.45E-09
  5.64E-10  5.11E-10  2.18E-09  9.93E-09  9.27E-09  2.19E-09  5.67E-10  2.55E-09
  4.04E-09  7.90E-09  1.70E-09  1.80E-09  2.66E-09  8.39E-09  2.80E-10  3.42E-09
  5.65E-10  5.69E-09  1.16E-09  5.51E-09  2.14E-09  7.74E-09  4.52E-09  1.99E-09
  2.26E-09  5.91E-09  7.08E-09  9.78E-09  6.39E-09  3.67E-09  3.33E-07  1.27E-05
 -2.8770E+00 -1.6307E+00 -1.6303E+00 -1.6303E+00 -4.2741E-01  1.0589E-01
  1.6059E-01  1.6059E-01  2.5553E-01  2.8552E-01  2.9117E-01  2.9117E-01
  3.0906E-01  4.2719E-01  8.2258E-01  9.0172E-01  9.1393E-01  9.1393E-01
  1.1314E+00  1.2398E+00  1.2459E+00  1.2459E+00  1.3625E+00  1.4535E+00
  1.4981E+00  1.4981E+00  1.7834E+00  1.8424E+00  1.9870E+00  1.9870E+00
  2.2618E+00  2.2619E+00  2.3400E+00  2.3625E+00  2.3625E+00  2.5399E+00
  2.5621E+00  2.5621E+00  2.6470E+00  2.6876E+00
  prteigrs : nnsclo,ikpt=   30    6 max resid (incl. the buffer)=  1.27373E-05
 Non-SCF case, kpt    7 (  0.20000  0.20000  0.00000), residuals and eigenvalues=
  9.89E-10  1.34E-09  1.08E-09  7.97E-09  4.39E-09  5.56E-09  5.56E-10  1.94E-09
  8.75E-10  6.98E-09  1.39E-09  3.14E-09  3.78E-09  6.01E-09  4.72E-09  1.76E-09
  3.78E-10  1.86E-09  3.10E-09  2.56E-09  8.86E-10  7.44E-09  1.39E-09  2.78E-09
  3.71E-10  2.34E-09  5.38E-10  7.71E-09  3.06E-09  3.02E-09  2.81E-09  4.66E-09
  2.46E-09  3.08E-09  4.01E-09  7.49E-09  3.49E-09  8.72E-09  1.44E-07  2.19E-06
 -2.8769E+00 -1.6308E+00 -1.6304E+00 -1.6304E+00 -4.2321E-01  9.0981E-02
  1.5602E-01  1.5602E-01  2.5127E-01  2.8715E-01  2.9751E-01  2.9751E-01
  3.1298E-01  4.5217E-01  8.0897E-01  8.5447E-01  9.0175E-01  9.0175E-01
  1.1774E+00  1.2476E+00  1.2848E+00  1.2848E+00  1.3662E+00  1.4559E+00
  1.4916E+00  1.4916E+00  1.7874E+00  1.8420E+00  1.9596E+00  1.9596E+00
  2.2629E+00  2.2705E+00  2.3364E+00  2.3431E+00  2.3431E+00  2.5307E+00
  2.5307E+00  2.5571E+00  2.6101E+00  2.6585E+00
  prteigrs : nnsclo,ikpt=   30    7 max resid (incl. the buffer)=  2.18518E-06
 Non-SCF case, kpt    8 (  0.23333  0.23333  0.00000), residuals and eigenvalues=
  7.90E-09  1.52E-09  6.89E-10  8.11E-10  9.57E-09  3.47E-09  1.65E-09  3.93E-09
  3.35E-09  1.46E-09  8.34E-10  5.31E-09  1.01E-09  7.07E-10  9.76E-09  1.16E-09
  4.73E-10  6.70E-09  3.96E-09  1.45E-09  2.14E-09  7.91E-09  7.64E-10  3.84E-10
  7.63E-10  1.76E-09  1.32E-09  1.96E-09  3.98E-09  6.33E-09  4.24E-09  5.70E-09
  1.65E-09  8.71E-09  2.88E-09  7.48E-09  4.30E-09  3.78E-09  3.34E-06  2.42E-05
 -2.8769E+00 -1.6310E+00 -1.6305E+00 -1.6305E+00 -4.1887E-01  7.8661E-02
  1.5196E-01  1.5196E-01  2.4678E-01  2.8889E-01  3.0305E-01  3.0305E-01
  3.1625E-01  4.7589E-01  7.9728E-01  8.1057E-01  8.9232E-01  8.9232E-01
  1.2269E+00  1.2571E+00  1.3256E+00  1.3256E+00  1.3580E+00  1.4690E+00
  1.4845E+00  1.4845E+00  1.7351E+00  1.9054E+00  1.9345E+00  1.9345E+00
  2.2589E+00  2.2708E+00  2.2907E+00  2.2907E+00  2.3316E+00  2.4745E+00
  2.5300E+00  2.5300E+00  2.6415E+00  2.6735E+00
  prteigrs : nnsclo,ikpt=   30    8 max resid (incl. the buffer)=  2.42407E-05
 Non-SCF case, kpt    9 (  0.26667  0.26667  0.00000), residuals and eigenvalues=
  5.55E-09  2.13E-09  2.09E-09  4.88E-09  1.17E-09  4.04E-10  1.33E-09  2.18E-09
  5.84E-10  3.85E-10  3.22E-09  7.48E-09  6.59E-09  2.10E-09  1.26E-09  1.48E-09
  2.17E-09  4.47E-09  1.17E-09  9.42E-10  8.50E-10  6.80E-10  1.61E-09  5.27E-09
  8.18E-09  3.26E-09  8.98E-10  5.46E-09  8.59E-09  4.83E-09  3.99E-09  6.35E-09
  6.80E-09  5.70E-09  8.43E-09  4.72E-09  8.96E-09  8.60E-09  5.54E-06  1.66E-04
 -2.8769E+00 -1.6313E+00 -1.6306E+00 -1.6306E+00 -4.1463E-01  6.8992E-02
  1.4844E-01  1.4844E-01  2.4226E-01  2.9069E-01  3.0748E-01  3.0748E-01
  3.1880E-01  4.9727E-01  7.7093E-01  7.8740E-01  8.8575E-01  8.8575E-01
  1.2682E+00  1.2795E+00  1.3446E+00  1.3673E+00  1.3673E+00  1.4774E+00
  1.4774E+00  1.4874E+00  1.6856E+00  1.9117E+00  1.9117E+00  1.9717E+00
  2.2242E+00  2.2242E+00  2.2401E+00  2.2531E+00  2.3352E+00  2.4101E+00
  2.5408E+00  2.5408E+00  2.6361E+00  2.7094E+00
  prteigrs : nnsclo,ikpt=   30    9 max resid (incl. the buffer)=  1.66405E-04
 Non-SCF case, kpt   10 (  0.30000  0.30000  0.00000), residuals and eigenvalues=
  1.36E-09  9.35E-09  6.99E-10  3.94E-09  9.31E-10  1.24E-09  1.35E-09  4.44E-09
  9.11E-10  1.05E-09  1.67E-09  3.21E-09  2.03E-09  1.00E-09  5.04E-09  2.01E-09
  4.91E-10  8.92E-09  2.61E-09  5.19E-09  1.28E-09  4.11E-10  1.45E-09  4.40E-10
  1.44E-09  5.66E-09  5.98E-10  1.50E-09  3.82E-09  8.48E-09  1.88E-09  6.39E-09
  8.79E-10  2.38E-09  3.93E-09  7.42E-09  6.01E-09  8.11E-09  1.41E-07  1.59E-06
 -2.8768E+00 -1.6315E+00 -1.6307E+00 -1.6307E+00 -4.1069E-01  6.2348E-02
  1.4566E-01  1.4566E-01  2.3791E-01  2.9246E-01  3.1084E-01  3.1084E-01
  3.2025E-01  5.1546E-01  7.3636E-01  7.7920E-01  8.8180E-01  8.8180E-01
  1.2811E+00  1.3311E+00  1.3353E+00  1.4073E+00  1.4073E+00  1.4733E+00
  1.4733E+00  1.5081E+00  1.6391E+00  1.8917E+00  1.8917E+00  2.0385E+00
  2.1543E+00  2.1543E+00  2.1936E+00  2.2211E+00  2.3482E+00  2.3772E+00
  2.5534E+00  2.5534E+00  2.6353E+00  2.6648E+00
  prteigrs : nnsclo,ikpt=   30   10 max resid (incl. the buffer)=  1.59253E-06
 Non-SCF case, kpt   11 (  0.33333  0.33333  0.00000), residuals and eigenvalues=
  4.76E-09  8.08E-09  1.20E-09  5.52E-09  1.48E-09  6.04E-10  1.59E-09  2.33E-09
  4.30E-09  1.98E-09  2.62E-09  7.89E-09  1.26E-09  9.77E-10  4.57E-09  1.57E-09
  1.80E-09  4.91E-09  9.17E-09  9.92E-09  7.57E-09  4.60E-10  9.07E-10  7.68E-10
  6.53E-09  4.59E-09  7.85E-09  9.19E-10  9.34E-10  4.82E-09  7.86E-09  8.71E-09
  7.62E-09  3.03E-09  8.77E-09  3.46E-09  5.77E-09  7.16E-09  1.87E-07  5.37E-09
 -2.8768E+00 -1.6316E+00 -1.6307E+00 -1.6307E+00 -4.0723E-01  5.8073E-02
  1.4344E-01  1.4344E-01  2.3391E-01  2.9412E-01  3.1312E-01  3.1312E-01
  3.2040E-01  5.2943E-01  7.0764E-01  7.7254E-01  8.8005E-01  8.8005E-01
  1.2958E+00  1.3188E+00  1.3941E+00  1.4335E+00  1.4335E+00  1.4844E+00
  1.4844E+00  1.5300E+00  1.5957E+00  1.8744E+00  1.8744E+00  2.0850E+00
  2.0850E+00  2.1005E+00  2.1246E+00  2.1865E+00  2.3657E+00  2.3712E+00
  2.5652E+00  2.5652E+00  2.6239E+00  2.6294E+00
  prteigrs : nnsclo,ikpt=   30   11 max resid (incl. the buffer)=  1.87141E-07
 Non-SCF case, kpt   12 (  0.36667  0.36667  0.00000), residuals and eigenvalues=
  6.93E-09  4.17E-09  6.11E-10  2.24E-09  5.41E-09  7.99E-09  1.03E-09  2.50E-09
  7.64E-10  3.15E-10  1.07E-09  1.75E-09  6.81E-10  3.46E-10  2.90E-10  6.37E-10
  3.17E-10  3.66E-09  2.84E-09  7.43E-10  7.96E-10  7.80E-09  1.86E-09  1.70E-09
  3.46E-09  6.26E-10  1.01E-09  1.00E-09  9.81E-09  3.97E-09  4.34E-09  3.21E-09
  2.98E-09  4.00E-09  9.19E-09  4.81E-09  8.55E-09  6.96E-09  3.87E-08  4.53E-08
 -2.8768E+00 -1.6318E+00 -1.6308E+00 -1.6308E+00 -4.0436E-01  5.6480E-02
  1.4191E-01  1.4191E-01  2.3041E-01  2.9560E-01  3.1451E-01  3.1451E-01
  3.1943E-01  5.3993E-01  6.8539E-01  7.6728E-01  8.8007E-01  8.8007E-01
  1.3087E+00  1.3123E+00  1.4360E+00  1.4360E+00  1.4558E+00  1.5212E+00
  1.5212E+00  1.5521E+00  1.5556E+00  1.8597E+00  1.8597E+00  2.0184E+00
  2.0184E+00  2.0470E+00  2.1207E+00  2.1903E+00  2.3783E+00  2.3853E+00
  2.5760E+00  2.5760E+00  2.5856E+00  2.6107E+00
  prteigrs : nnsclo,ikpt=   30   12 max resid (incl. the buffer)=  4.52700E-08
 Non-SCF case, kpt   13 (  0.40000  0.40000  0.00000), residuals and eigenvalues=
  2.16E-09  2.56E-09  1.97E-09  5.26E-09  3.21E-09  6.27E-10  8.47E-10  1.51E-09
  6.15E-09  1.75E-09  6.53E-10  8.83E-10  2.88E-09  1.21E-09  4.54E-09  3.38E-09
  2.54E-09  8.27E-09  3.61E-09  5.25E-09  5.93E-10  9.51E-09  1.61E-09  3.15E-09
  4.04E-10  9.82E-09  4.80E-09  6.96E-10  3.27E-09  8.79E-10  4.08E-09  5.46E-10
  2.11E-09  6.20E-09  9.29E-09  8.84E-09  4.24E-09  6.06E-09  5.58E-09  7.82E-08
 -2.8768E+00 -1.6319E+00 -1.6309E+00 -1.6309E+00 -4.0212E-01  5.6265E-02
  1.4055E-01  1.4055E-01  2.2755E-01  2.9679E-01  3.1514E-01  3.1514E-01
  3.1753E-01  5.4651E-01  6.6932E-01  7.6328E-01  8.8094E-01  8.8094E-01
  1.3008E+00  1.3303E+00  1.4312E+00  1.4312E+00  1.5190E+00  1.5202E+00
  1.5668E+00  1.5668E+00  1.5732E+00  1.8465E+00  1.8465E+00  1.9562E+00
  1.9562E+00  1.9678E+00  2.0907E+00  2.2426E+00  2.3919E+00  2.4032E+00
  2.5500E+00  2.5833E+00  2.5856E+00  2.5856E+00
  prteigrs : nnsclo,ikpt=   30   13 max resid (incl. the buffer)=  7.81872E-08
 Non-SCF case, kpt   14 (  0.43333  0.43333  0.00000), residuals and eigenvalues=
  2.25E-09  1.84E-09  4.96E-09  9.19E-09  9.87E-09  3.94E-09  7.70E-10  5.03E-09
  7.31E-10  7.06E-09  6.04E-10  3.64E-09  6.85E-09  6.57E-10  1.23E-09  1.67E-09
  6.75E-10  6.77E-09  3.03E-09  1.70E-09  3.77E-10  9.72E-09  3.90E-09  2.63E-09
  2.59E-09  3.72E-10  3.52E-09  3.20E-09  6.62E-09  2.05E-09  7.23E-10  4.09E-09
  3.54E-09  6.70E-09  5.12E-09  8.57E-09  5.15E-09  4.83E-09  7.37E-09  1.32E-08
 -2.8768E+00 -1.6320E+00 -1.6309E+00 -1.6309E+00 -4.0054E-01  5.7122E-02
  1.3986E-01  1.3986E-01  2.2543E-01  2.9771E-01  3.1535E-01  3.1540E-01
  3.1540E-01  5.5009E-01  6.5942E-01  7.6052E-01  8.8223E-01  8.8223E-01
  1.2953E+00  1.3493E+00  1.4264E+00  1.4264E+00  1.4867E+00  1.5869E+00
  1.5915E+00  1.6136E+00  1.6136E+00  1.8332E+00  1.8332E+00  1.8895E+00
  1.9024E+00  1.9024E+00  2.0609E+00  2.2952E+00  2.4097E+00  2.4137E+00
  2.5175E+00  2.5591E+00  2.5936E+00  2.5936E+00
  prteigrs : nnsclo,ikpt=   30   14 max resid (incl. the buffer)=  1.32030E-08
 Non-SCF case, kpt   15 (  0.46667  0.46667  0.00000), residuals and eigenvalues=
  1.25E-09  3.28E-09  9.12E-10  1.86E-09  1.28E-09  1.42E-09  1.86E-09  4.37E-09
  2.84E-09  1.42E-09  6.02E-09  1.30E-09  4.01E-09  2.26E-09  4.34E-09  2.80E-09
  5.07E-10  8.15E-09  3.58E-09  4.84E-09  2.99E-10  5.07E-09  9.27E-09  2.84E-09
  2.32E-09  1.71E-09  2.93E-09  4.25E-09  2.98E-09  1.87E-09  1.15E-09  9.03E-09
  2.58E-09  4.05E-09  6.09E-09  7.30E-09  6.85E-09  5.30E-09  1.64E-08  3.73E-08
 -2.8767E+00 -1.6321E+00 -1.6310E+00 -1.6310E+00 -3.9961E-01  5.7748E-02
  1.3928E-01  1.3928E-01  2.2410E-01  2.9828E-01  3.1355E-01  3.1544E-01
  3.1544E-01  5.5159E-01  6.5375E-01  7.5888E-01  8.8311E-01  8.8311E-01
  1.2920E+00  1.3666E+00  1.4230E+00  1.4230E+00  1.4613E+00  1.6040E+00
  1.6545E+00  1.6558E+00  1.6558E+00  1.8133E+00  1.8133E+00  1.8147E+00
  1.8680E+00  1.8680E+00  2.0403E+00  2.3401E+00  2.4085E+00  2.4296E+00
  2.4886E+00  2.5453E+00  2.5987E+00  2.5987E+00
  prteigrs : nnsclo,ikpt=   30   15 max resid (incl. the buffer)=  3.72717E-08
 Non-SCF case, kpt   16 (  0.50000  0.50000  0.00000), residuals and eigenvalues=
  9.92E-09  7.91E-10  2.45E-09  5.15E-09  5.43E-09  3.32E-09  1.37E-09  1.86E-09
  2.85E-09  2.97E-09  7.98E-09  5.66E-10  9.37E-10  4.06E-09  6.29E-10  4.32E-10
  2.32E-09  5.75E-09  8.42E-10  1.50E-09  1.21E-09  6.73E-09  1.01E-09  1.99E-09
  1.04E-09  3.97E-09  1.67E-09  1.08E-09  1.37E-09  4.31E-09  2.39E-09  2.99E-09
  3.58E-09  3.96E-09  4.35E-09  3.82E-09  2.91E-09  6.51E-09  7.84E-09  7.49E-08
 -2.8767E+00 -1.6321E+00 -1.6310E+00 -1.6310E+00 -3.9930E-01  5.8090E-02
  1.3915E-01  1.3915E-01  2.2366E-01  2.9847E-01  3.1287E-01  3.1544E-01
  3.1544E-01  5.5199E-01  6.5204E-01  7.5834E-01  8.8350E-01  8.8350E-01
  1.2909E+00  1.3750E+00  1.4219E+00  1.4219E+00  1.4503E+00  1.6085E+00
  1.6765E+00  1.6765E+00  1.7033E+00  1.7635E+00  1.7980E+00  1.7980E+00
  1.8586E+00  1.8586E+00  2.0330E+00  2.3665E+00  2.3951E+00  2.4442E+00
  2.4712E+00  2.5418E+00  2.6006E+00  2.6006E+00
  prteigrs : nnsclo,ikpt=   30   16 max resid (incl. the buffer)=  7.48818E-08
 Non-SCF case, kpt   17 (  0.50000  0.53571  0.03571), residuals and eigenvalues=
  5.99E-09  3.29E-09  2.34E-09  7.60E-09  2.47E-09  3.84E-09  9.97E-09  2.57E-09
  4.14E-09  5.54E-09  3.41E-09  1.97E-09  7.71E-10  5.39E-09  1.84E-09  7.07E-09
  1.58E-09  2.64E-09  2.29E-09  8.94E-09  6.20E-09  2.91E-10  2.28E-09  9.62E-10
  7.21E-10  1.16E-09  1.64E-09  2.22E-09  1.64E-09  9.17E-10  1.67E-09  1.27E-09
  9.60E-10  5.05E-09  4.12E-09  8.35E-09  6.11E-09  6.12E-09  1.24E-04  2.00E-04
 -2.8767E+00 -1.6321E+00 -1.6310E+00 -1.6309E+00 -3.9912E-01  5.8683E-02
  1.3664E-01  1.3690E-01  2.2679E-01  3.0038E-01  3.1349E-01  3.1514E-01
  3.1545E-01  5.5445E-01  6.5227E-01  7.5320E-01  8.7966E-01  8.9080E-01
  1.2936E+00  1.3435E+00  1.4217E+00  1.4476E+00  1.4500E+00  1.6124E+00
  1.6647E+00  1.6782E+00  1.6993E+00  1.7773E+00  1.8026E+00  1.8054E+00
  1.8543E+00  1.8584E+00  2.0400E+00  2.3718E+00  2.3947E+00  2.4384E+00
  2.4404E+00  2.4980E+00  2.6374E+00  2.6476E+00
  prteigrs : nnsclo,ikpt=   30   17 max resid (incl. the buffer)=  1.99979E-04
 Non-SCF case, kpt   18 (  0.50000  0.57143  0.07143), residuals and eigenvalues=
  8.26E-10  4.83E-09  4.87E-09  7.35E-10  1.57E-09  4.46E-09  3.65E-09  4.63E-10
  5.22E-10  4.71E-10  5.37E-09  2.10E-09  9.20E-10  5.50E-09  4.14E-09  4.64E-09
  4.73E-10  2.94E-10  3.08E-10  5.83E-10  1.04E-09  1.95E-09  2.33E-09  1.49E-09
  5.76E-10  7.40E-09  3.08E-09  2.31E-09  2.50E-09  4.56E-09  2.33E-09  1.38E-09
  3.74E-09  7.29E-09  7.76E-09  5.59E-09  8.14E-09  4.18E-09  3.32E-05  3.80E-04
 -2.8767E+00 -1.6321E+00 -1.6310E+00 -1.6309E+00 -3.9862E-01  6.0344E-02
  1.2994E-01  1.3031E-01  2.3490E-01  3.0447E-01  3.1411E-01  3.1547E-01
  3.1609E-01  5.6175E-01  6.5293E-01  7.4063E-01  8.6802E-01  9.0975E-01
  1.2962E+00  1.3012E+00  1.4212E+00  1.4400E+00  1.4855E+00  1.6254E+00
  1.6414E+00  1.6827E+00  1.6903E+00  1.8031E+00  1.8168E+00  1.8243E+00
  1.8412E+00  1.8614E+00  2.0604E+00  2.3798E+00  2.3825E+00  2.3860E+00
  2.4225E+00  2.4504E+00  2.6141E+00  2.6948E+00
  prteigrs : nnsclo,ikpt=   30   18 max resid (incl. the buffer)=  3.79867E-04
 Non-SCF case, kpt   19 (  0.50000  0.60714  0.10714), residuals and eigenvalues=
  2.77E-09  4.00E-09  1.71E-09  3.71E-09  3.41E-09  6.16E-10  7.25E-09  2.09E-09
  4.55E-09  4.29E-09  7.47E-10  9.09E-09  7.26E-09  1.03E-09  1.34E-09  9.54E-10
  2.70E-09  1.00E-09  7.05E-09  3.47E-09  2.54E-09  2.09E-09  8.87E-09  4.42E-10
  2.42E-09  5.35E-09  3.02E-09  5.27E-09  8.60E-09  2.10E-09  5.20E-10  6.33E-09
  1.35E-09  1.70E-09  3.25E-09  4.39E-09  5.21E-09  9.49E-09  2.15E-08  4.42E-06
 -2.8767E+00 -1.6320E+00 -1.6311E+00 -1.6310E+00 -3.9788E-01  6.2949E-02
  1.2082E-01  1.2103E-01  2.4578E-01  3.0732E-01  3.1216E-01  3.1547E-01
  3.2174E-01  5.7352E-01  6.5405E-01  7.2504E-01  8.5006E-01  9.3567E-01
  1.2483E+00  1.3125E+00  1.4205E+00  1.4290E+00  1.5100E+00  1.6171E+00
  1.6491E+00  1.6802E+00  1.6892E+00  1.8157E+00  1.8221E+00  1.8417E+00
  1.8502E+00  1.8820E+00  2.0929E+00  2.3195E+00  2.3348E+00  2.3779E+00
  2.4037E+00  2.4417E+00  2.5670E+00  2.6440E+00
  prteigrs : nnsclo,ikpt=   30   19 max resid (incl. the buffer)=  4.41546E-06
 Non-SCF case, kpt   20 (  0.50000  0.64286  0.14286), residuals and eigenvalues=
  3.51E-09  7.09E-09  2.15E-09  3.92E-09  2.91E-09  4.85E-09  2.25E-09  9.84E-09
  4.15E-09  6.87E-09  6.13E-09  1.03E-09  4.77E-09  9.57E-09  5.70E-09  7.27E-09
  1.08E-09  9.50E-09  7.44E-10  2.70E-09  4.58E-09  2.82E-09  5.42E-10  3.24E-09
  6.02E-09  8.95E-09  1.61E-09  1.93E-09  1.78E-09  9.49E-09  4.73E-09  1.51E-09
  7.18E-09  5.89E-09  6.00E-09  3.52E-09  8.61E-09  7.45E-09  1.79E-08  1.19E-07
 -2.8767E+00 -1.6319E+00 -1.6312E+00 -1.6310E+00 -3.9706E-01  6.6625E-02
  1.1116E-01  1.1174E-01  2.5782E-01  3.0860E-01  3.0906E-01  3.1548E-01
  3.2859E-01  5.8878E-01  6.5615E-01  7.0938E-01  8.2837E-01  9.6623E-01
  1.2017E+00  1.3262E+00  1.4166E+00  1.4197E+00  1.5240E+00  1.5952E+00
  1.6714E+00  1.6794E+00  1.6968E+00  1.8004E+00  1.8103E+00  1.8791E+00
  1.8794E+00  1.9229E+00  2.1353E+00  2.2634E+00  2.2721E+00  2.3079E+00
  2.4155E+00  2.4527E+00  2.5455E+00  2.5958E+00
  prteigrs : nnsclo,ikpt=   30   20 max resid (incl. the buffer)=  1.18825E-07
 Non-SCF case, kpt   21 (  0.50000  0.67857  0.17857), residuals and eigenvalues=
  3.37E-09  9.19E-09  8.94E-10  7.04E-10  4.41E-09  2.26E-09  8.18E-09  7.17E-10
  2.82E-09  1.71E-09  6.48E-10  1.27E-09  8.65E-10  6.14E-09  2.16E-09  2.85E-09
  1.87E-09  2.99E-09  1.88E-09  1.06E-09  7.25E-09  1.84E-09  5.66E-09  4.95E-10
  1.19E-09  3.85E-10  6.60E-09  6.98E-10  6.37E-09  7.06E-09  8.24E-09  4.23E-09
  6.12E-09  4.37E-09  1.32E-09  2.64E-09  2.78E-09  5.47E-09  4.25E-09  1.33E-08
 -2.8767E+00 -1.6318E+00 -1.6313E+00 -1.6310E+00 -3.9632E-01  7.1405E-02
  1.0124E-01  1.0401E-01  2.6966E-01  3.0453E-01  3.0920E-01  3.1548E-01
  3.3442E-01  6.0540E-01  6.5967E-01  6.9492E-01  8.0654E-01  9.9960E-01
  1.1571E+00  1.3404E+00  1.4039E+00  1.4190E+00  1.5327E+00  1.5765E+00
  1.6649E+00  1.7052E+00  1.7097E+00  1.7797E+00  1.7969E+00  1.9086E+00
  1.9300E+00  1.9723E+00  2.1849E+00  2.2080E+00  2.2150E+00  2.2270E+00
  2.4061E+00  2.4696E+00  2.5333E+00  2.5645E+00
  prteigrs : nnsclo,ikpt=   30   21 max resid (incl. the buffer)=  1.32606E-08
 Non-SCF case, kpt   22 (  0.50000  0.71429  0.21429), residuals and eigenvalues=
  2.27E-09  9.61E-10  1.95E-09  8.74E-09  9.84E-09  2.51E-09  2.91E-09  6.78E-09
  7.36E-09  3.64E-09  2.50E-09  6.15E-09  5.16E-10  4.08E-09  8.94E-10  2.57E-09
  2.31E-09  7.75E-09  1.45E-09  6.49E-09  1.80E-09  2.91E-10  9.34E-09  4.98E-09
  3.30E-09  3.98E-09  8.67E-09  5.43E-10  6.80E-10  2.73E-09  8.16E-09  5.58E-09
  9.84E-09  6.97E-09  2.80E-09  4.77E-09  9.39E-09  5.75E-09  3.27E-09  1.60E-08
 -2.8767E+00 -1.6317E+00 -1.6314E+00 -1.6310E+00 -3.9580E-01  7.7363E-02
  9.2474E-02  9.9113E-02  2.8072E-01  2.9833E-01  3.0953E-01  3.1550E-01
  3.3821E-01  6.1945E-01  6.6512E-01  6.8273E-01  7.8920E-01  1.0357E+00
  1.1145E+00  1.3534E+00  1.3923E+00  1.4186E+00  1.5404E+00  1.5614E+00
  1.6609E+00  1.7136E+00  1.7367E+00  1.7629E+00  1.7800E+00  1.9323E+00
  1.9931E+00  2.0265E+00  2.1450E+00  2.1454E+00  2.1800E+00  2.2371E+00
  2.3710E+00  2.4882E+00  2.5214E+00  2.5558E+00
  prteigrs : nnsclo,ikpt=   30   22 max resid (incl. the buffer)=  1.60400E-08
 Non-SCF case, kpt   23 (  0.50000  0.75000  0.25000), residuals and eigenvalues=
  9.17E-09  9.15E-10  5.08E-09  1.37E-09  1.17E-09  2.51E-09  8.54E-09  1.04E-09
  4.02E-09  7.86E-09  2.73E-09  2.09E-09  8.31E-09  6.27E-10  1.56E-09  2.58E-09
  4.43E-09  7.19E-10  3.38E-09  1.77E-09  5.99E-09  6.76E-09  6.73E-10  2.05E-09
  3.18E-10  4.72E-10  1.06E-09  3.94E-09  9.39E-09  3.47E-09  7.24E-10  2.35E-09
  9.24E-10  2.09E-09  1.43E-09  3.08E-09  2.65E-09  8.57E-09  8.12E-09  5.99E-09
 -2.8767E+00 -1.6315E+00 -1.6315E+00 -1.6310E+00 -3.9561E-01  8.4410E-02
  8.4410E-02  9.7477E-02  2.9037E-01  2.9037E-01  3.0962E-01  3.1550E-01
  3.3957E-01  6.2528E-01  6.7274E-01  6.7274E-01  7.8230E-01  1.0741E+00
  1.0741E+00  1.3602E+00  1.3861E+00  1.4184E+00  1.5496E+00  1.5496E+00
  1.6595E+00  1.7181E+00  1.7554E+00  1.7600E+00  1.7600E+00  1.9420E+00
  2.0641E+00  2.0641E+00  2.0863E+00  2.0863E+00  2.1665E+00  2.2705E+00
  2.3413E+00  2.5062E+00  2.5062E+00  2.5557E+00
 Non-SCF case, kpt   24 (  0.47500  0.75000  0.27500), residuals and eigenvalues=
  3.51E-09  8.48E-09  2.17E-09  1.54E-09  2.48E-09  1.99E-09  4.78E-10  5.02E-10
  1.18E-09  7.48E-10  9.83E-10  2.05E-09  1.24E-09  7.16E-10  1.85E-09  4.65E-10
  3.11E-09  6.71E-10  9.06E-10  1.29E-09  1.60E-09  1.40E-09  3.96E-09  3.80E-10
  6.30E-10  4.23E-09  1.84E-09  1.12E-09  2.46E-09  4.19E-09  7.29E-09  2.87E-09
  4.95E-09  2.40E-09  2.07E-09  2.03E-09  7.25E-09  7.51E-09  6.23E-09  6.48E-08
 -2.8767E+00 -1.6316E+00 -1.6315E+00 -1.6310E+00 -3.9572E-01  7.9578E-02
  8.6586E-02  1.0074E-01  2.8379E-01  2.9617E-01  3.1040E-01  3.1542E-01
  3.3944E-01  6.2301E-01  6.6723E-01  6.7591E-01  7.8916E-01  1.0465E+00
  1.1020E+00  1.3572E+00  1.3892E+00  1.4127E+00  1.5393E+00  1.5525E+00
  1.6703E+00  1.7180E+00  1.7461E+00  1.7481E+00  1.7899E+00  1.9336E+00
  2.0144E+00  2.0427E+00  2.1057E+00  2.1187E+00  2.2000E+00  2.2546E+00
  2.3630E+00  2.4951E+00  2.5090E+00  2.5587E+00
  prteigrs : nnsclo,ikpt=   30   24 max resid (incl. the buffer)=  6.47631E-08
 Non-SCF case, kpt   25 (  0.45000  0.75000  0.30000), residuals and eigenvalues=
  5.88E-09  8.76E-09  2.64E-09  1.87E-09  5.31E-09  3.89E-09  1.54E-09  6.94E-09
  1.24E-09  5.92E-09  3.26E-09  7.45E-09  8.42E-10  3.98E-09  7.92E-09  1.42E-09
  7.16E-09  5.73E-10  3.36E-09  6.13E-10  6.55E-09  6.42E-10  4.45E-09  6.21E-09
  1.67E-09  1.07E-09  3.65E-09  1.38E-09  2.58E-09  9.50E-10  1.79E-09  1.42E-09
  3.59E-09  9.57E-09  7.38E-09  2.76E-09  3.68E-09  8.75E-09  1.29E-08  3.72E-06
[...]
-           npfft4          4
-           npkpt1          5
-           npkpt2         16
-           npkpt3         16
-           npkpt4          4
            nstep1        100
            nstep2         30
            nstep3         30
            nstep4         30
             nsym          48
           ntypat           2
              occ1     2.000000  2.000000  2.000000  2.000000  2.000000  2.000000
                       2.000000  2.000000  2.000000  2.000000  2.000000  1.959389
                       1.959389  0.000000  0.000000  0.000000  0.000000  0.000000
                       0.000000  0.000000  0.000000  0.000000  0.000000  0.000000
                       0.000000  0.000000  0.000000  0.000000  0.000000  0.000000
                       0.000000  0.000000  0.000000  0.000000  0.000000  0.000000
                       0.000000  0.000000  0.000000  0.000000
                       2.000000  2.000000  2.000000  2.000000  2.000000  2.000000
                       2.000000  2.000000  1.999944  1.999760  1.917212  0.435861
                       0.000000  0.000000  0.000000  0.000000  0.000000  0.000000
                       0.000000  0.000000  0.000000  0.000000  0.000000  0.000000
                       0.000000  0.000000  0.000000  0.000000  0.000000  0.000000
                       0.000000  0.000000  0.000000  0.000000  0.000000  0.000000
                       0.000000  0.000000  0.000000  0.000000
                       2.000000  2.000000  2.000000  2.000000  2.000000  2.000000
                       2.000000  2.000000  2.000000  1.999485  1.995097  1.686770
                       0.085459  0.000000  0.000000  0.000000  0.000000  0.000000
                       0.000000  0.000000  0.000000  0.000000  0.000000  0.000000
                       0.000000  0.000000  0.000000  0.000000  0.000000  0.000000
                       0.000000  0.000000  0.000000  0.000000  0.000000  0.000000
                       0.000000  0.000000  0.000000  0.000000
                       2.000000  2.000000  2.000000  2.000000  2.000000  2.000000
                       2.000000  2.000000  1.981070  1.981070  1.905095  0.000000
                       0.000000  0.000000  0.000000  0.000000  0.000000  0.000000
                       0.000000  0.000000  0.000000  0.000000  0.000000  0.000000
                       0.000000  0.000000  0.000000  0.000000  0.000000  0.000000
                       0.000000  0.000000  0.000000  0.000000  0.000000  0.000000
                       0.000000  0.000000  0.000000  0.000000
                       2.000000  2.000000  2.000000  2.000000  2.000000  2.000000
                       2.000000  2.000000  1.996842  1.818867  1.373004  0.000000
                       0.000000  0.000000  0.000000  0.000000  0.000000  0.000000
                       0.000000  0.000000  0.000000  0.000000  0.000000  0.000000
                       0.000000  0.000000  0.000000  0.000000  0.000000  0.000000
                       0.000000  0.000000  0.000000  0.000000  0.000000  0.000000
                       0.000000  0.000000  0.000000  0.000000
                       2.000000  2.000000  2.000000  2.000000  2.000000  2.000000
                       2.000000  2.000000  1.999362  1.888162  1.609975  0.055143
                       0.000000  0.000000  0.000000  0.000000  0.000000  0.000000
                       0.000000  0.000000  0.000000  0.000000  0.000000  0.000000
                       0.000000  0.000000  0.000000  0.000000  0.000000  0.000000
                       0.000000  0.000000  0.000000  0.000000  0.000000  0.000000
                       0.000000  0.000000  0.000000  0.000000
                       2.000000  2.000000  2.000000  2.000000  2.000000  2.000000
                       2.000000  2.000000  1.999999  1.863922  1.454028  0.148439
                       0.000000  0.000000  0.000000  0.000000  0.000000  0.000000
                       0.000000  0.000000  0.000000  0.000000  0.000000  0.000000
                       0.000000  0.000000  0.000000  0.000000  0.000000  0.000000
                       0.000000  0.000000  0.000000  0.000000  0.000000  0.000000
                       0.000000  0.000000  0.000000  0.000000
                       2.000000  2.000000  2.000000  2.000000  2.000000  2.000000
                       2.000000  2.000000  2.000000  1.922301  1.302188  0.887656
                       0.027015  0.000000  0.000000  0.000000  0.000000  0.000000
                       0.000000  0.000000  0.000000  0.000000  0.000000  0.000000
                       0.000000  0.000000  0.000000  0.000000  0.000000  0.000000
                       0.000000  0.000000  0.000000  0.000000  0.000000  0.000000
                       0.000000  0.000000  0.000000  0.000000
                       2.000000  2.000000  2.000000  2.000000  2.000000  2.000000
                       2.000000  2.000000  2.000000  1.564266  0.948122  0.924920
                       0.493062  0.000000  0.000000  0.000000  0.000000  0.000000
                       0.000000  0.000000  0.000000  0.000000  0.000000  0.000000
                       0.000000  0.000000  0.000000  0.000000  0.000000  0.000000
                       0.000000  0.000000  0.000000  0.000000  0.000000  0.000000
                       0.000000  0.000000  0.000000  0.000000
                       2.000000  2.000000  2.000000  2.000000  2.000000  2.000000
                       2.000000  2.000000  2.000000  1.893669  0.970244  0.573313
                       0.000147  0.000000  0.000000  0.000000  0.000000  0.000000
                       0.000000  0.000000  0.000000  0.000000  0.000000  0.000000
                       0.000000  0.000000  0.000000  0.000000  0.000000  0.000000
                       0.000000  0.000000  0.000000  0.000000  0.000000  0.000000
                       0.000000  0.000000  0.000000  0.000000
              occ4     2.000000  2.000000  2.000000  2.000000  2.000000  2.000000
                       2.000000  2.000000  2.000000  2.000000  2.000000  1.479330
                       1.479330  0.000000  0.000000  0.000000  0.000000  0.000000
                       0.000000  0.000000  0.000000  0.000000  0.000000  0.000000
                       0.000000  0.000000  0.000000  0.000000  0.000000  0.000000
                       0.000000  0.000000  0.000000  0.000000  0.000000  0.000000
                       0.000000  0.000000  0.000000  0.000000
                       2.000000  2.000000  2.000000  2.000000  2.000000  2.000000
                       2.000000  2.000000  1.918774  1.918774  1.419812  0.000000
                       0.000000  0.000000  0.000000  0.000000  0.000000  0.000000
                       0.000000  0.000000  0.000000  0.000000  0.000000  0.000000
                       0.000000  0.000000  0.000000  0.000000  0.000000  0.000000
                       0.000000  0.000000  0.000000  0.000000  0.000000  0.000000
                       0.000000  0.000000  0.000000  0.000000
                       2.000000  2.000000  2.000000  2.000000  2.000000  2.000000
                       2.000000  2.000000  1.994857  1.991796  1.768791  0.019685
                       0.000000  0.000000  0.000000  0.000000  0.000000  0.000000
                       0.000000  0.000000  0.000000  0.000000  0.000000  0.000000
                       0.000000  0.000000  0.000000  0.000000  0.000000  0.000000
                       0.000000  0.000000  0.000000  0.000000  0.000000  0.000000
                       0.000000  0.000000  0.000000  0.000000
                       2.000000  2.000000  2.000000  2.000000  2.000000  2.000000
                       2.000000  2.000000  2.000000  1.982568  1.867246  0.630643
                       0.001594  0.000000  0.000000  0.000000  0.000000  0.000000
                       0.000000  0.000000  0.000000  0.000000  0.000000  0.000000
                       0.000000  0.000000  0.000000  0.000000  0.000000  0.000000
                       0.000000  0.000000  0.000000  0.000000  0.000000  0.000000
                       0.000000  0.000000  0.000000  0.000000
                       2.000000  2.000000  2.000000  2.000000  2.000000  2.000000
                       2.000000  2.000000  2.000000  1.481836  1.150756  0.580945
                       0.244268  0.000000  0.000000  0.000000  0.000000  0.000000
                       0.000000  0.000000  0.000000  0.000000  0.000000  0.000000
                       0.000000  0.000000  0.000000  0.000000  0.000000  0.000000
                       0.000000  0.000000  0.000000  0.000000  0.000000  0.000000
                       0.000000  0.000000  0.000000  0.000000
                       2.000000  2.000000  2.000000  2.000000  2.000000  2.000000
                       2.000000  2.000000  1.999717  1.997326  1.204145  0.221380
                       0.000001  0.000000  0.000000  0.000000  0.000000  0.000000
                       0.000000  0.000000  0.000000  0.000000  0.000000  0.000000
                       0.000000  0.000000  0.000000  0.000000  0.000000  0.000000
                       0.000000  0.000000  0.000000  0.000000  0.000000  0.000000
                       0.000000  0.000000  0.000000  0.000000
           occopt           7
        paral_kgb1          1
        paral_kgb2          0
        paral_kgb3          0
        paral_kgb4          1
        pawecutdg      4.50000000E+01 Hartree
        pawfatbnd1          0
        pawfatbnd2          0
        pawfatbnd3          2
        pawfatbnd4          0
         pawmixdg1          1
         pawmixdg2          0
         pawmixdg3          0
         pawmixdg4          1
        pawprtdos1          0
        pawprtdos2          0
        pawprtdos3          0
        pawprtdos4          2
           prtdos1          0
           prtdos2          0
           prtdos3          0
           prtdos4          3
            rprim      2.1584523900E+00  0.0000000000E+00  2.1584523900E+00
                       2.1584523900E+00  2.1584523900E+00  0.0000000000E+00
                       0.0000000000E+00  2.1584523900E+00  2.1584523900E+00
           shiftk      5.00000000E-01  5.00000000E-01  5.00000000E-01
          spgroup         225
           strten1     1.2154504901E-03  1.2154504901E-03  1.2154504901E-03
                       0.0000000000E+00  0.0000000000E+00  0.0000000000E+00
           symrel      1  0  0   0  1  0   0  0  1      -1  0  0   0 -1  0   0  0 -1
                       0 -1  1   0 -1  0   1 -1  0       0  1 -1   0  1  0  -1  1  0
                      -1  0  0  -1  0  1  -1  1  0       1  0  0   1  0 -1   1 -1  0
                       0  1 -1   1  0 -1   0  0 -1       0 -1  1  -1  0  1   0  0  1
                      -1  0  0  -1  1  0  -1  0  1       1  0  0   1 -1  0   1  0 -1
                       0 -1  1   1 -1  0   0 -1  0       0  1 -1  -1  1  0   0  1  0
                       1  0  0   0  0  1   0  1  0      -1  0  0   0  0 -1   0 -1  0
                       0  1 -1   0  0 -1   1  0 -1       0 -1  1   0  0  1  -1  0  1
                      -1  0  1  -1  1  0  -1  0  0       1  0 -1   1 -1  0   1  0  0
                       0 -1  0   1 -1  0   0 -1  1       0  1  0  -1  1  0   0  1 -1
                       1  0 -1   0  0 -1   0  1 -1      -1  0  1   0  0  1   0 -1  1
                       0  1  0   0  0  1   1  0  0       0 -1  0   0  0 -1  -1  0  0
                       1  0 -1   0  1 -1   0  0 -1      -1  0  1   0 -1  1   0  0  1
                       0 -1  0   0 -1  1   1 -1  0       0  1  0   0  1 -1  -1  1  0
                      -1  0  1  -1  0  0  -1  1  0       1  0 -1   1  0  0   1 -1  0
                       0  1  0   1  0  0   0  0  1       0 -1  0  -1  0  0   0  0 -1
                       0  0 -1   0  1 -1   1  0 -1       0  0  1   0 -1  1  -1  0  1
                       1 -1  0   0 -1  1   0 -1  0      -1  1  0   0  1 -1   0  1  0
                       0  0  1   1  0  0   0  1  0       0  0 -1  -1  0  0   0 -1  0
                      -1  1  0  -1  0  0  -1  0  1       1 -1  0   1  0  0   1  0 -1
                       0  0  1   0  1  0   1  0  0       0  0 -1   0 -1  0  -1  0  0
                       1 -1  0   0 -1  0   0 -1  1      -1  1  0   0  1  0   0  1 -1
                       0  0 -1   1  0 -1   0  1 -1       0  0  1  -1  0  1   0 -1  1
                      -1  1  0  -1  0  1  -1  0  0       1 -1  0   1  0 -1   1  0  0
           tolvrs1     1.00000000E-03
           tolvrs2     0.00000000E+00
           tolvrs3     0.00000000E+00
           tolvrs4     0.00000000E+00
           tolwfr1     0.00000000E+00
           tolwfr2     1.00000000E-08
           tolwfr3     1.00000000E-08
           tolwfr4     1.00000000E-08
            typat      1  2
           useylm           1
         wfoptalg1        114
         wfoptalg2         10
         wfoptalg3         10
         wfoptalg4        114
              wtk1       0.03125    0.09375    0.09375    0.03125    0.09375    0.09375
                         0.18750    0.09375    0.09375    0.18750
              wtk2       1.00000    1.00000    1.00000    1.00000    1.00000    1.00000
                         1.00000    1.00000    1.00000    1.00000    1.00000    1.00000
                         1.00000    1.00000    1.00000    1.00000    1.00000    1.00000
                         1.00000    1.00000    1.00000    1.00000    1.00000    1.00000
                         1.00000    1.00000    1.00000    1.00000    1.00000    1.00000
                         1.00000    1.00000    1.00000    1.00000    1.00000    1.00000
                         1.00000    1.00000    1.00000    1.00000    1.00000    1.00000
                         1.00000    1.00000    1.00000    1.00000    1.00000    1.00000
                         1.00000    1.00000
              wtk3       1.00000    1.00000    1.00000    1.00000    1.00000    1.00000
                         1.00000    1.00000    1.00000    1.00000    1.00000    1.00000
                         1.00000    1.00000    1.00000    1.00000    1.00000    1.00000
                         1.00000    1.00000    1.00000    1.00000    1.00000    1.00000
                         1.00000    1.00000    1.00000    1.00000    1.00000    1.00000
                         1.00000    1.00000    1.00000    1.00000    1.00000    1.00000
                         1.00000    1.00000    1.00000    1.00000    1.00000    1.00000
                         1.00000    1.00000    1.00000    1.00000    1.00000    1.00000
                         1.00000    1.00000
              wtk4       0.07407    0.03704    0.22222    0.22222    0.22222    0.22222
                       outvars : Printing only first  50 k-points.
           xangst      0.0000000000E+00  0.0000000000E+00  0.0000000000E+00
                       0.0000000000E+00  0.0000000000E+00  2.1584523900E+00
            xcart      0.0000000000E+00  0.0000000000E+00  0.0000000000E+00
                       0.0000000000E+00  0.0000000000E+00  4.0788838880E+00
             xred      0.0000000000E+00  0.0000000000E+00  0.0000000000E+00
                       5.0000000000E-01 -5.0000000000E-01  5.0000000000E-01
            znucl       26.00000    8.00000

================================================================================


- Timing analysis has been suppressed with timopt=0



================================================================================

 Suggested references for the acknowledgment of ABINIT usage.

 The users of ABINIT have little formal obligations with respect to the ABINIT group
 (those specified in the GNU General Public License, http://www.gnu.org/copyleft/gpl.txt).
 However, it is common practice in the scientific literature,
 to acknowledge the efforts of people that have made the research possible.
 In this spirit, please find below suggested citations of work written by ABINIT developers,
 corresponding to implementations inside of ABINIT that you have used in the present run.
 Note also that it will be of great value to readers of publications presenting these results,
 to read papers enabling them to understand the theoretical formalism and details
 of the ABINIT implementation.
 For information on why they are suggested, see also http://www.abinit.org/about/?text=acknowledgments.
-
- [1] Implementation of the Projector Augmented-Wave Method in the ABINIT code.
- M. Torrent, F. Jollet, F. Bottin, G. Zerah, and X. Gonze Comput. Mat. Science 42, 337, (2008).
- Comment : PAW calculations. Strong suggestion to cite this paper.
-
- [2] Recent developments in the ABINIT software package.
- Computer Phys. Comm. 205, 106 (2016).
- X.Gonze, F.Jollet, F.Abreu Araujo, D.Adams, B.Amadon, T.Applencourt,
- C.Audouze, J.-M.Beuken, J.Bieder, A.Bokhanchuk, E.Bousquet, F.Bruneval
- D.Caliste, M.Cote, F.Dahm, F.Da Pieve, M.Delaveau, M.Di Gennaro,
- B.Dorado, C.Espejo, G.Geneste, L.Genovese, A.Gerossier, M.Giantomassi,
- Y.Gillet, D.R.Hamann, L.He, G.Jomard, J.Laflamme Janssen, S.Le Roux,
- A.Levitt, A.Lherbier, F.Liu, I.Lukacevic, A.Martin, C.Martins,
- M.J.T.Oliveira, S.Ponce, Y.Pouillon, T.Rangel, G.-M.Rignanese,
- A.H.Romero, B.Rousseau, O.Rubel, A.A.Shukri, M.Stankovski, M.Torrent,
- M.J.Van Setten, B.Van Troeye, M.J.Verstraete, D.Waroquier, J.Wiktor,
- B.Xue, A.Zhou, J.W.Zwanziger.
- Comment : the fourth generic paper describing the ABINIT project.
- Note that a version of this paper, that is not formatted for Computer Phys. Comm. 
- is available at http://www.abinit.org/about/ABINIT16.pdf .
- The licence allows the authors to put it on the Web.
-
- [3] ABINIT : First-principles approach of materials and nanosystem properties.
- Computer Phys. Comm. 180, 2582-2615 (2009).
- X. Gonze, B. Amadon, P.-M. Anglade, J.-M. Beuken, F. Bottin, P. Boulanger, F. Bruneval,
- D. Caliste, R. Caracas, M. Cote, T. Deutsch, L. Genovese, Ph. Ghosez, M. Giantomassi
- S. Goedecker, D.R. Hamann, P. Hermet, F. Jollet, G. Jomard, S. Leroux, M. Mancini, S. Mazevet,
- M.J.T. Oliveira, G. Onida, Y. Pouillon, T. Rangel, G.-M. Rignanese, D. Sangalli, R. Shaltaf,
- M. Torrent, M.J. Verstraete, G. Zerah, J.W. Zwanziger
- Comment : the third generic paper describing the ABINIT project.
- Note that a version of this paper, that is not formatted for Computer Phys. Comm. 
- is available at http://www.abinit.org/about/ABINIT_CPC_v10.pdf .
- The licence allows the authors to put it on the Web.
-
- [4] A brief introduction to the ABINIT software package.
- Z. Kristallogr. 220, 558-562 (2005).
- X. Gonze, G.-M. Rignanese, M. Verstraete, J.-M. Beuken, Y. Pouillon, R. Caracas, F. Jollet,
- M. Torrent, G. Zerah, M. Mikami, Ph. Ghosez, M. Veithen, J.-Y. Raty, V. Olevano, F. Bruneval,
- L. Reining, R. Godby, G. Onida, D.R. Hamann, and D.C. Allan.
- Comment : the second generic paper describing the ABINIT project. Note that this paper
- should be cited especially if you are using the GW part of ABINIT, as several authors
- of this part are not in the list of authors of the first or third paper.
- The .pdf of the latter paper is available at http://www.abinit.org/about/zfk_0505-06_558-562.pdf.
- Note that it should not redistributed (Copyright by Oldenburg Wissenshaftverlag,
- the licence allows the authors to put it on the Web).
-
- And optionally:
-
- [5] First-principles computation of material properties : the ABINIT software project. 
- X. Gonze, J.-M. Beuken, R. Caracas, F. Detraux, M. Fuchs, G.-M. Rignanese, L. Sindic,
- M. Verstraete, G. Zerah, F. Jollet, M. Torrent, A. Roy, M. Mikami, Ph. Ghosez, J.-Y. Raty, D.C. Allan.
- Computational Materials Science 25, 478-492 (2002). http://dx.doi.org/10.1016/S0927-0256(02)00325-7
- Comment : the original paper describing the ABINIT project.
-
- Proc.   0 individual time (sec): cpu=         20.7  wall=         21.1

================================================================================

 Calculation completed.
.Delivered   0 WARNINGs and   4 COMMENTs to log file.
+Overall time at end (sec) : cpu=        337.0  wall=        337.8
